 written on 27Jun2024 at 19:21:55 
   2.5102669999999998        0.0000000000000000        0.0000000000000000     
  -1.2551334999999999        2.1739549999999999        0.0000000000000000     
   0.0000000000000000        0.0000000000000000        15.000000000000000     
          12
         151
    2    1    1    1    2    2    1    1    1    1    1    2    1    1    1
    1    1    1    1    1    2    1    1    1    1    1    1    1    1    1
    1    1    2    1    1    1    1    1    1    1    1    1    1    1    1
    1    1    1    1    1    1    1    1    1    1    1    1    1    1    1
    1    1    1    1    1    1    1    1    1    2    1    1    1    1    1
    1    1    1    1    1    1    2    1    1    1    1    1    1    1    1
    1    1    1    1    1    1    1    1    1    1    1    1    1    1    1
    1    1    1    1    1    1    1    1    1    1    1    1    1    2    1
    1    1    1    1    1    1    1    1    1    1    2    1    1    1    1
    1    1    1    1    2    1    1    1    1    1    2    2    1    1    1
    2

   -8   -4    0
    1    1   -0.39308301E-01  0.16215738E-01
    2    1    0.48129235E-02 -0.17694528E-01
    3    1   -0.29410459E-01 -0.12711510E-01
    4    1   -0.70940449E-02 -0.95033770E-02
    5    1    0.98993616E-02 -0.15091192E-02
    6    1   -0.34886058E-01 -0.24822809E-01
    7    1    0.14727268E-03 -0.74630667E-02
    8    1    0.15117070E-01  0.74546059E-02
    9    1   -0.46324160E-02  0.17739228E-02
   10    1   -0.24486283E-02  0.33490141E-02
   11    1    0.32767299E-02  0.37148781E-01
   12    1   -0.21031331E-01 -0.65291415E-02
    1    2    0.12962343E-02 -0.35768061E-02
    2    2    0.39497356E-01 -0.23275636E-01
    3    2    0.13654508E-01  0.34846484E-02
    4    2    0.10528345E-01  0.19421611E-01
    5    2    0.90844282E-02 -0.14989451E-02
    6    2    0.18940604E-01  0.27126793E-01
    7    2   -0.14937474E-03 -0.34728673E-01
    8    2   -0.68644250E-02 -0.17926651E-01
    9    2   -0.10660179E-01  0.23371983E-01
   10    2   -0.20312971E-01 -0.76502796E-02
   11    2    0.29135922E-02 -0.66492878E-03
   12    2   -0.26605219E-02 -0.12968425E-01
    1    3   -0.39648166E-02  0.28222505E-01
    2    3   -0.15535172E-01 -0.18936950E-01
    3    3   -0.73089328E-02 -0.20786296E-01
    4    3    0.17733092E-02  0.25883191E-02
    5    3   -0.11055984E-01 -0.79642121E-02
    6    3    0.31116197E-01 -0.15903494E-01
    7    3    0.49278477E-02 -0.43327211E-02
    8    3   -0.11256035E-01  0.84630653E-02
    9    3    0.15802433E-01  0.53148102E-02
   10    3    0.17718059E-02  0.10886803E-01
   11    3   -0.89650106E-02 -0.20581606E-01
   12    3    0.27758078E-02 -0.88513618E-02
    1    4    0.90047452E-03  0.76772467E-02
    2    4   -0.16474374E-01 -0.64845818E-02
    3    4   -0.67755163E-02  0.75035899E-02
    4    4    0.33706928E-02 -0.13147768E-02
    5    4   -0.47993381E-02  0.31540378E-02
    6    4    0.34004474E-02 -0.82021213E-02
    7    4    0.20522425E-02  0.88186315E-03
    8    4    0.23458973E-02  0.50601495E-03
    9    4    0.17234960E-02 -0.13716147E-01
   10    4   -0.12967670E-02  0.85555916E-02
   11    4   -0.31194956E-03 -0.70583064E-02
   12    4   -0.13125142E-01  0.67537170E-02
    1    5    0.15491736E-01 -0.25052520E-01
    2    5   -0.24371912E-02 -0.13081214E-01
    3    5   -0.19548294E-01 -0.44756875E-02
    4    5    0.92282248E-04  0.13116373E-02
    5    5   -0.13693154E-02 -0.87445768E-03
    6    5    0.13223077E-01 -0.53442139E-02
    7    5   -0.60426511E-02 -0.72589763E-02
    8    5    0.16365526E-02  0.60146506E-02
    9    5    0.11886746E-02  0.65930103E-04
   10    5   -0.68436405E-03  0.19999403E-01
   11    5    0.27335549E-02  0.20769456E-01
   12    5   -0.15164535E-01  0.89719240E-02
    1    6    0.23174790E-01  0.37207842E-01
    2    6    0.42400315E-02  0.49943997E-01
    3    6   -0.42125347E-02  0.47720596E-02
    4    6   -0.20826531E-02  0.11260009E-01
    5    6    0.12486992E-01  0.15004101E-01
    6    6   -0.20819148E-01  0.15870054E-01
    7    6    0.20001423E-01  0.29178452E-02
    8    6   -0.16392115E-02 -0.14110974E-01
    9    6   -0.97761002E-02 -0.75057746E-02
   10    6    0.28420440E-01 -0.16651994E-01
   11    6    0.96243897E-02 -0.43833178E-01
   12    6    0.27755140E-01  0.22271050E-01
    1    7    0.18394319E-02  0.17773768E-01
    2    7   -0.23220387E-01 -0.31105469E-01
    3    7    0.69511930E-02  0.91674871E-02
    4    7   -0.33025876E-02 -0.29125991E-03
    5    7   -0.79509941E-02  0.98740628E-02
    6    7   -0.87814406E-02  0.50711405E-03
    7    7   -0.78426037E-03  0.10206964E-01
    8    7    0.71356530E-03  0.22628368E-02
    9    7    0.31256267E-02  0.32833139E-02
   10    7   -0.91591767E-02  0.50646781E-02
   11    7    0.71713163E-02 -0.26116256E-03
   12    7    0.22354709E-02 -0.48266733E-02
    1    8    0.19473735E-01 -0.60182804E-02
    2    8   -0.97614551E-02 -0.28389600E-01
    3    8    0.12393674E-01 -0.14827819E-01
    4    8    0.15673838E-02 -0.35194978E-02
    5    8    0.68749375E-02 -0.46740325E-02
    6    8   -0.15696525E-01 -0.76683958E-02
    7    8   -0.19801478E-02  0.50554498E-02
    8    8   -0.10689561E-02  0.57115455E-02
    9    8   -0.28426160E-02 -0.34936208E-02
   10    8   -0.34540604E-02  0.24882171E-02
   11    8    0.17285615E-02  0.12625168E-01
   12    8   -0.10962729E-01 -0.11048980E-01
    1    9    0.19472851E-01  0.18968535E-01
    2    9    0.89383498E-02  0.13128476E-01
    3    9   -0.93246913E-04 -0.10643889E-01
    4    9    0.69649879E-02  0.45114828E-02
    5    9    0.12733699E-01  0.89743838E-02
    6    9    0.11537704E-01 -0.15365213E-01
    7    9    0.27777882E-02  0.23989452E-03
    8    9   -0.51719067E-02  0.14902356E-02
    9    9    0.12399786E-01  0.64322543E-02
   10    9    0.49354915E-02  0.84803321E-02
   11    9    0.46603098E-02  0.15078407E-01
   12    9   -0.14247875E-02 -0.53556026E-02
    1   10    0.68887281E-02 -0.79814014E-02
    2   10    0.14428319E-01 -0.27513307E-01
    3   10    0.35913262E-02  0.77277933E-03
    4   10   -0.72463054E-02 -0.67549327E-02
    5   10    0.58330221E-02 -0.16971083E-01
    6   10    0.15370171E-02 -0.74444122E-02
    7   10   -0.11698524E-01 -0.12630995E-01
    8   10    0.40080687E-04  0.13207864E-01
    9   10   -0.27907728E-02  0.56572623E-02
   10   10    0.77376880E-03 -0.14305817E-01
   11   10    0.41741723E-02  0.89415105E-02
   12   10    0.41559536E-02 -0.20856426E-01
    1   11    0.54424540E-04  0.61637098E-02
    2   11   -0.27065898E-01 -0.21765918E-01
    3   11    0.63144085E-02 -0.11724867E-01
    4   11    0.15379031E-01 -0.75336161E-02
    5   11   -0.11310596E-01 -0.19224197E-01
    6   11    0.96329884E-02 -0.30342249E-01
    7   11   -0.13897725E-01 -0.24795937E-03
    8   11   -0.11738466E-01  0.10645948E-01
    9   11    0.26637509E-02 -0.99526592E-02
   10   11   -0.31612786E-02  0.19394969E-01
   11   11    0.70479408E-02  0.17340620E-01
   12   11   -0.22772065E-01 -0.65301415E-02
    1   12    0.27180339E-02  0.17921396E-01
    2   12   -0.35159175E-02  0.26076081E-01
    3   12   -0.82361074E-02 -0.10048070E-01
    4   12    0.87551727E-02 -0.11524261E-01
    5   12   -0.18445657E-01 -0.18755188E-02
    6   12    0.42681902E-01 -0.33169990E-01
    7   12   -0.29683661E-02  0.10193064E-01
    8   12    0.19871772E-02  0.21981734E-02
    9   12    0.16736157E-01 -0.21743037E-01
   10   12   -0.20981600E-01 -0.19669510E-02
   11   12   -0.80346804E-02 -0.37835795E-01
   12   12   -0.19897390E-01 -0.10911897E-01

   -7   -5    0
    1    1    0.84987280E-02 -0.65338142E-01
    2    1   -0.12628614E-01  0.25585905E-02
    3    1    0.15729426E-01 -0.41005046E-01
    4    1    0.58327835E-02 -0.15397078E-01
    5    1    0.12626560E-01  0.35124246E-01
    6    1    0.26468922E-01 -0.36965968E-01
    7    1    0.78459011E-02  0.29483711E-02
    8    1    0.73517729E-02  0.18492292E-02
    9    1   -0.42847619E-02  0.12127862E-02
   10    1   -0.75699811E-02  0.73638438E-03
   11    1   -0.31390869E-01  0.19005113E-01
   12    1   -0.35743129E-02 -0.31545015E-01
    1    2    0.25619308E-01  0.17931350E-01
    2    2    0.15624222E-01  0.39912647E-01
    3    2   -0.55681588E-02 -0.27699781E-01
    4    2    0.11564195E-01 -0.11109817E-01
    5    2    0.31724188E-02  0.20659618E-03
    6    2    0.24132693E-02 -0.27649701E-01
    7    2    0.28550448E-02  0.27412894E-01
    8    2    0.14447569E-01  0.24042655E-01
    9    2    0.16624575E-01 -0.16712276E-01
   10    2   -0.19315256E-01  0.13967618E-01
   11    2   -0.64023043E-03  0.63506011E-02
   12    2   -0.14341675E-01  0.62227266E-02
    1    3   -0.21468865E-01 -0.25606128E-01
    2    3    0.82829719E-02 -0.12759041E-01
    3    3    0.84433061E-02 -0.38138003E-02
    4    3    0.68960588E-02 -0.81609333E-02
    5    3    0.13368039E-01 -0.43547340E-02
    6    3    0.31387555E-03 -0.50226321E-02
    7    3    0.53485980E-02  0.13923620E-01
    8    3    0.10363469E-01  0.21582702E-01
    9    3    0.12794180E-01  0.13252953E-01
   10    3    0.46695715E-02 -0.41717473E-02
   11    3    0.15494159E-01  0.15535769E-01
   12    3    0.23875356E-02  0.14557814E-01
    1    4   -0.82573610E-02 -0.11617563E-02
    2    4   -0.13089325E-01 -0.17412734E-01
    3    4   -0.75452277E-02  0.47300299E-02
    4    4   -0.14238661E-02 -0.25546164E-02
    5    4    0.93772929E-04  0.37289632E-02
    6    4   -0.10155600E-01 -0.34640175E-02
    7    4    0.58918290E-03  0.19537563E-02
    8    4    0.39716938E-02  0.24447983E-02
    9    4   -0.13832776E-02  0.14382595E-02
   10    4    0.87709645E-03 -0.23926244E-02
   11    4   -0.36600153E-02  0.58712540E-02
   12    4   -0.23501894E-02  0.78007721E-02
    1    5    0.11566631E-01  0.14023903E-02
    2    5    0.62587587E-02  0.50121688E-02
    3    5    0.44099196E-02 -0.12960850E-01
    4    5    0.21637716E-02 -0.40459795E-02
    5    5    0.23921023E-01 -0.25725121E-01
    6    5   -0.20872619E-01 -0.57634874E-01
    7    5   -0.65473029E-02 -0.65643874E-02
    8    5    0.19473742E-01  0.12706809E-01
    9    5    0.11304156E-01 -0.10903061E-01
   10    5    0.73054139E-02  0.25091060E-02
   11    5   -0.13980671E-01 -0.15022158E-01
   12    5    0.19912962E-01 -0.22881928E-01
    1    6   -0.57000368E-01 -0.10519921E-01
    2    6    0.15225060E-01 -0.78970187E-01
    3    6    0.53806242E-03  0.17188209E-03
    4    6    0.39801450E-02  0.29690788E-02
    5    6    0.14931839E-01 -0.34333570E-01
    6    6   -0.24658309E-01  0.36153746E-01
    7    6   -0.15178142E-01 -0.36808435E-02
    8    6    0.50624301E-03  0.13029633E-01
    9    6    0.26677436E-01  0.25894430E-01
   10    6   -0.44207333E-01 -0.15048845E-01
   11    6    0.60307956E-03  0.25408814E-01
   12    6   -0.47241169E-02 -0.52605222E-02
    1    7   -0.12391802E-01  0.32850806E-01
    2    7    0.58656486E-02  0.39081457E-01
    3    7    0.15928851E-01 -0.10171270E-01
    4    7    0.53893481E-02  0.54269765E-03
    5    7   -0.15927493E-02  0.20566451E-02
    6    7    0.23699912E-01 -0.22543640E-02
    7    7   -0.79505914E-02 -0.29961730E-02
    8    7   -0.10305983E-01  0.36378979E-02
    9    7   -0.22410826E-02 -0.31096107E-02
   10    7    0.91588457E-02 -0.17389647E-01
   11    7   -0.11478094E-01 -0.24177257E-01
   12    7    0.15560599E-01  0.16410862E-01
    1    8    0.66508840E-02 -0.85996591E-02
    2    8   -0.70388117E-02  0.23904402E-01
    3    8   -0.53939616E-02  0.80711849E-02
    4    8   -0.24440608E-02  0.21458277E-02
    5    8   -0.13028836E-01 -0.36666366E-02
    6    8    0.60858834E-02  0.11760091E-01
    7    8    0.40380541E-03 -0.22006482E-02
    8    8    0.20004395E-04 -0.14476007E-02
    9    8   -0.12945469E-01 -0.82642211E-02
   10    8    0.11448790E-01 -0.18812162E-02
   11    8   -0.10789749E-01  0.89829615E-03
   12    8    0.12634145E-01  0.59242399E-02
    1    9   -0.19273478E-01  0.12698913E-01
    2    9    0.67851982E-02 -0.21685534E-01
    3    9   -0.99664552E-02 -0.20505158E-01
    4    9    0.35849614E-02 -0.40000041E-02
    5    9   -0.14747245E-01 -0.41425478E-02
    6    9   -0.10817317E-01 -0.22164814E-01
    7    9    0.11195345E-01  0.49031383E-03
    8    9    0.44010854E-02  0.16307435E-01
    9    9   -0.36829900E-02 -0.68579562E-02
   10    9    0.18436612E-01  0.51544588E-02
   11    9   -0.13914328E-01 -0.13295373E-01
   12    9    0.82356362E-02 -0.28802227E-02
    1   10    0.76156554E-02  0.22333493E-01
    2   10    0.19145642E-01  0.22349291E-02
    3   10    0.82417400E-02 -0.11504143E-01
    4   10   -0.45092138E-02  0.86377379E-03
    5   10   -0.11171175E-01  0.77898965E-02
    6   10    0.34849525E-01 -0.36244242E-01
    7   10    0.26195652E-02  0.84202640E-02
    8   10   -0.73314650E-02  0.43373978E-02
    9   10    0.31279269E-02 -0.69204316E-02
   10   10   -0.76406831E-02 -0.12707788E-01
   11   10   -0.61352283E-02  0.40214325E-02
   12   10    0.31911620E-02 -0.11677833E-02
    1   11   -0.28765848E-03 -0.36684027E-02
    2   11   -0.36964043E-02  0.13304184E-01
    3   11   -0.77780735E-02  0.18281893E-01
    4   11   -0.12369982E-01 -0.25410295E-03
    5   11    0.12426934E-01 -0.42504036E-02
    6   11   -0.10547204E-01  0.16688345E-01
    7   11    0.35180343E-02  0.39206042E-02
    8   11    0.21131102E-02  0.88426537E-02
    9   11   -0.45115722E-02  0.16393425E-01
   10   11    0.34950218E-02  0.40096665E-02
   11   11    0.84165083E-02  0.15871048E-01
   12   11   -0.10089142E-01  0.76395044E-02
    1   12    0.87848015E-02  0.44267707E-02
    2   12    0.13306999E-01 -0.73066330E-02
    3   12   -0.40256641E-02  0.15663622E-01
    4   12    0.11335251E-02  0.93272699E-02
    5   12   -0.94031711E-02 -0.19857398E-01
    6   12   -0.27420409E-01  0.10375126E-02
    7   12   -0.10150084E-01  0.54759815E-02
    8   12   -0.35962849E-02 -0.38051076E-02
    9   12   -0.83926275E-02 -0.66299683E-02
   10   12    0.16251228E-02  0.10135605E-01
   11   12   -0.12697823E-02 -0.14634796E-01
   12   12   -0.11117660E-01  0.32535362E-01

   -7   -4    0
    1    1   -0.16198706E-01  0.72095133E-01
    2    1   -0.23795166E-02 -0.24498554E-01
    3    1   -0.72101007E-01  0.54421594E-01
    4    1   -0.68261269E-02  0.57271308E-02
    5    1   -0.13775148E-01 -0.11295651E-01
    6    1   -0.43437939E-01  0.26056912E-02
    7    1   -0.17467293E-01 -0.34638866E-02
    8    1   -0.21206041E-02 -0.38084944E-03
    9    1    0.20039164E-01  0.95162033E-02
   10    1   -0.95729067E-02 -0.11117649E-02
   11    1   -0.11089332E-02 -0.11579872E-01
   12    1    0.16918574E-01  0.33947331E-01
    1    2   -0.40231698E-01 -0.33279815E-02
    2    2   -0.37861691E-01 -0.55728975E-01
    3    2   -0.25731341E-01  0.39395292E-01
    4    2   -0.13089117E-01  0.10372430E-01
    5    2    0.67418202E-02  0.70014084E-02
    6    2   -0.21083854E-01  0.55020497E-01
    7    2    0.18012117E-01 -0.20692166E-01
    8    2    0.13029719E-01 -0.17748606E-01
    9    2   -0.15847181E-01  0.14940060E-02
   10    2    0.24232825E-01 -0.18948422E-02
   11    2   -0.18222975E-01 -0.84888556E-02
   12    2    0.20028207E-01  0.21190423E-01
    1    3    0.59388608E-01  0.82297670E-02
    2    3    0.34379022E-01 -0.14651218E-01
    3    3    0.17691305E-03  0.46174588E-02
    4    3    0.71849181E-03  0.11556955E-01
    5    3   -0.40695603E-02  0.15841566E-01
    6    3   -0.11530432E-01  0.50815828E-01
    7    3    0.21136013E-01 -0.70241128E-02
    8    3    0.33029024E-02 -0.15124816E-01
    9    3   -0.64128638E-03  0.39385842E-02
   10    3   -0.11897339E-01 -0.10802610E-01
   11    3   -0.57478768E-02 -0.42887512E-02
   12    3   -0.89513180E-03 -0.92062126E-02
    1    4    0.48735365E-02  0.90626888E-02
    2    4    0.79134806E-03  0.10338092E-01
    3    4   -0.95355427E-02  0.62479889E-02
    4    4   -0.56856517E-03  0.17306743E-02
    5    4   -0.45181619E-02  0.56978288E-02
    6    4    0.31488333E-02 -0.28434896E-04
    7    4    0.30440322E-02 -0.42032222E-02
    8    4   -0.13993067E-02 -0.62874792E-02
    9    4    0.10938015E-01  0.29956638E-02
   10    4   -0.58430171E-02  0.14298510E-02
   11    4   -0.17547320E-01  0.28294973E-02
   12    4    0.15099887E-01 -0.11907575E-01
    1    5   -0.24850825E-02 -0.69251943E-02
    2    5   -0.49798241E-02 -0.23715918E-01
    3    5   -0.67567626E-02  0.70699219E-02
    4    5    0.26405913E-02  0.60870199E-02
    5    5    0.11243359E-01  0.19610987E-01
    6    5    0.12589920E-01  0.38913007E-01
    7    5    0.23179458E-02  0.13997836E-02
    8    5   -0.36312212E-02  0.15459748E-01
    9    5   -0.10107943E-01  0.19738496E-01
   10    5    0.51209527E-02 -0.13154809E-01
   11    5    0.12351327E-01 -0.10608078E-01
   12    5    0.26568351E-02  0.16996346E-01
    1    6    0.28641799E-01  0.13584664E-02
    2    6   -0.37253056E-01  0.20319801E-01
    3    6    0.75701365E-02 -0.17013340E-01
    4    6   -0.36487861E-02 -0.11491125E-01
    5    6   -0.14627033E-01  0.27439342E-01
    6    6    0.97638639E-04 -0.39449294E-01
    7    6    0.31097541E-02  0.71099644E-02
    8    6    0.22602646E-02 -0.37569427E-02
    9    6    0.66905114E-03 -0.22081524E-01
   10    6    0.22461139E-02  0.10188685E-01
   11    6   -0.95130680E-02 -0.22500281E-01
   12    6   -0.15820502E-01 -0.31612121E-01
    1    7   -0.26896176E-02 -0.18835211E-01
    2    7    0.20250128E-01 -0.39532687E-01
    3    7   -0.13468583E-01 -0.93300298E-02
    4    7    0.12275962E-02  0.75848565E-03
    5    7   -0.39865036E-02  0.99063606E-02
    6    7   -0.48118678E-02 -0.75439870E-02
    7    7   -0.34486284E-02  0.53809172E-02
    8    7    0.78429230E-02  0.42693406E-02
    9    7    0.39444743E-03  0.58836273E-02
   10    7   -0.39039495E-02  0.96614207E-02
   11    7    0.85131655E-02  0.90226025E-02
   12    7   -0.13088495E-01 -0.14670727E-01
    1    8    0.80228197E-02 -0.16057971E-02
    2    8    0.31593438E-01 -0.23486613E-01
    3    8   -0.62610594E-02 -0.20228695E-02
    4    8    0.61231810E-02  0.35776511E-03
    5    8    0.18797476E-01  0.76621409E-03
    6    8   -0.16124507E-02 -0.75021312E-02
    7    8   -0.53890961E-02 -0.23741115E-02
    8    8   -0.26477415E-02  0.27400491E-02
    9    8   -0.12957785E-02  0.54059205E-02
   10    8   -0.41513935E-02 -0.79657720E-02
   11    8    0.15542873E-02 -0.22675749E-02
   12    8    0.30333403E-05 -0.45811280E-02
    1    9    0.12579368E-01 -0.10579643E-01
    2    9   -0.47462754E-03  0.13040537E-01
    3    9    0.58993290E-02  0.28894184E-02
    4    9    0.54705785E-02  0.65340062E-03
    5    9    0.69015937E-02  0.39725062E-02
    6    9    0.25271895E-01  0.31225947E-01
    7    9   -0.46344688E-02 -0.14052589E-01
    8    9   -0.12486845E-01 -0.32009883E-02
    9    9    0.67896684E-02 -0.12463071E-01
   10    9   -0.80340579E-02 -0.41989766E-04
   11    9    0.12758820E-01 -0.14849002E-01
   12    9    0.10469158E-01  0.13060628E-02
    1   10   -0.35785057E-02 -0.19235368E-01
    2   10   -0.11884379E-01 -0.11528005E-01
    3   10   -0.47245807E-02  0.15256085E-01
    4   10    0.87260170E-03  0.13437033E-01
    5   10    0.36035727E-02 -0.11856580E-01
    6   10   -0.37725234E-01  0.35936784E-01
    7   10    0.37235353E-03 -0.22627145E-03
    8   10    0.12585321E-01 -0.32661147E-02
    9   10   -0.11277437E-02  0.18622689E-02
   10   10    0.13057280E-01  0.36671254E-01
   11   10    0.49047067E-02 -0.45915796E-02
   12   10   -0.26448255E-02  0.24643863E-01
    1   11   -0.36946852E-02  0.32066298E-02
    2   11    0.31482585E-01  0.71120221E-03
    3   11    0.18550785E-01 -0.73441042E-02
    4   11   -0.74944943E-02 -0.12935838E-01
    5   11   -0.19736070E-01 -0.80799436E-03
    6   11    0.16599373E-01 -0.82353294E-03
    7   11   -0.19839751E-01 -0.93215496E-02
    8   11   -0.16004648E-01 -0.13086103E-01
    9   11   -0.49859430E-02  0.10081321E-01
   10   11    0.84676125E-02 -0.12939503E-01
   11   11   -0.69507858E-02 -0.15503363E-01
   12   11    0.15180909E-01 -0.11402852E-01
    1   12    0.12218320E-01  0.11592338E-01
    2   12   -0.81280077E-02 -0.27104922E-02
    3   12    0.29568545E-01 -0.22729218E-01
    4   12   -0.18453368E-02  0.12106801E-02
    5   12    0.25658776E-01  0.10555576E-01
    6   12   -0.12800251E-01 -0.46379227E-02
    7   12    0.15624228E-01 -0.45894648E-02
    8   12    0.22588314E-02  0.13793573E-01
    9   12    0.23400021E-02  0.14719279E-01
   10   12    0.10586945E-01 -0.69276204E-02
   11   12    0.10004893E-01  0.14485321E-01
   12   12    0.33603850E-01 -0.18695772E-01

   -7   -3    0
    1    1   -0.22005701E-01 -0.87215465E-01
    2    1    0.58478490E-02  0.33626845E-01
    3    1    0.37634587E-01 -0.14572160E-01
    4    1    0.71300205E-02 -0.81478038E-02
    5    1    0.12214923E-01  0.19564284E-01
    6    1    0.26257999E-01 -0.34139890E-01
    7    1    0.23999686E-01 -0.31712105E-02
    8    1    0.44855455E-02  0.50946938E-02
    9    1   -0.10541214E-01 -0.12026788E-01
   10    1    0.93709321E-02  0.18946382E-01
   11    1    0.22156834E-01 -0.14285831E-01
   12    1    0.90478010E-02 -0.79722012E-02
    1    2    0.44182266E-01 -0.47989184E-02
    2    2    0.20084435E-01  0.71992690E-01
    3    2    0.10363379E-01  0.31287429E-03
    4    2    0.11959374E-01 -0.69297593E-02
    5    2   -0.14717396E-01  0.53806491E-02
    6    2    0.35077648E-01 -0.30954350E-01
    7    2   -0.13330190E-01 -0.14542416E-01
    8    2   -0.17136966E-01 -0.17033014E-01
    9    2    0.92992417E-02  0.37135360E-02
   10    2   -0.82622953E-02 -0.28061220E-02
   11    2   -0.10888883E-01 -0.57599776E-02
   12    2    0.17640728E-01 -0.27575248E-01
    1    3   -0.19493195E-01 -0.19788457E-01
    2    3   -0.22584122E-01 -0.32163080E-01
    3    3    0.13805521E-01  0.54453937E-02
    4    3    0.18356728E-01 -0.12962012E-01
    5    3   -0.72298518E-02 -0.32919089E-01
    6    3    0.46066689E-01 -0.22063277E-01
    7    3   -0.10678005E-01  0.95359537E-02
    8    3    0.25321372E-02  0.87582347E-02
    9    3    0.18851411E-03 -0.92855538E-02
   10    3   -0.95188302E-02  0.13171115E-01
   11    3    0.10862850E-01 -0.73474273E-02
   12    3   -0.21987415E-01  0.12578117E-01
    1    4   -0.16309607E-01 -0.75242278E-02
    2    4   -0.84980019E-02 -0.33625780E-02
    3    4    0.15382888E-02  0.12748037E-01
    4    4   -0.26650954E-03  0.31794771E-04
    5    4   -0.11493124E-02 -0.10471440E-01
    6    4   -0.46809156E-03 -0.11666535E-01
    7    4    0.27066361E-02  0.80116224E-03
    8    4   -0.15570229E-02 -0.14611353E-02
    9    4   -0.37659692E-03 -0.77736198E-02
   10    4    0.75556136E-02  0.13407603E-01
   11    4    0.11319675E-01  0.52149147E-02
   12    4   -0.77501075E-02  0.10215321E-01
    1    5    0.19158282E-01  0.19586356E-01
    2    5    0.80372984E-02  0.19901423E-01
    3    5    0.16979314E-01 -0.19243357E-01
    4    5   -0.13901593E-02  0.33685467E-02
    5    5   -0.26336442E-02 -0.43262242E-02
    6    5   -0.14613977E-02 -0.17725470E-01
    7    5    0.38728634E-02 -0.20257346E-02
    8    5    0.86479525E-02 -0.62569127E-02
    9    5    0.10333580E-01 -0.16141222E-01
   10    5   -0.29887983E-01  0.11208969E-01
   11    5   -0.32031315E-01 -0.85965267E-02
   12    5   -0.10895457E-01 -0.36603364E-01
    1    6   -0.45721913E-01 -0.38175077E-02
    2    6    0.11810736E-01  0.16955037E-01
    3    6   -0.15802611E-01  0.39960644E-01
    4    6   -0.97537401E-03  0.13082980E-01
    5    6   -0.54519877E-03 -0.14530655E-01
    6    6    0.24856802E-01  0.23048939E-01
    7    6    0.99076783E-02 -0.91163725E-02
    8    6   -0.87118224E-03 -0.14646608E-01
    9    6   -0.11477425E-01 -0.57480186E-02
   10    6    0.18870552E-01  0.11663327E-01
   11    6    0.17893165E-01  0.79267294E-02
   12    6    0.10217780E-01  0.46069097E-01
    1    7   -0.83068495E-02  0.14564732E-01
    2    7   -0.36900646E-01  0.67313657E-02
    3    7   -0.68652057E-02  0.13688684E-01
    4    7   -0.42351448E-02 -0.18438879E-02
    5    7   -0.44908042E-02 -0.42852393E-02
    6    7    0.27193217E-02  0.22536613E-01
    7    7    0.50910055E-02 -0.10742956E-02
    8    7    0.59422149E-02 -0.15206283E-02
    9    7    0.42142673E-03  0.78428031E-02
   10    7   -0.14506807E-01 -0.20608378E-01
   11    7   -0.29547588E-01 -0.25641048E-01
   12    7    0.88665954E-02  0.13386919E-01
    1    8    0.33454555E-02  0.15125001E-01
    2    8   -0.31167450E-01 -0.68143156E-03
    3    8    0.52927094E-02  0.11905021E-01
    4    8    0.10600384E-02 -0.14431455E-02
    5    8   -0.86439446E-02  0.79543226E-02
    6    8   -0.10566623E-01  0.22380598E-02
    7    8    0.63419900E-03  0.41712723E-05
    8    8   -0.25846764E-02  0.68092532E-02
    9    8    0.36484227E-03 -0.35044289E-02
   10    8   -0.33230276E-02  0.33937947E-03
   11    8    0.31156274E-02  0.62380059E-03
   12    8   -0.97943546E-03  0.15907240E-02
    1    9   -0.25942247E-01 -0.16593355E-02
    2    9    0.12076532E-01  0.73539148E-02
    3    9    0.91756858E-04  0.16288157E-01
    4    9   -0.83238930E-02 -0.16544235E-02
    5    9   -0.15532858E-01 -0.48297705E-02
    6    9   -0.21542389E-01 -0.11683350E-01
    7    9    0.66478050E-02  0.17678164E-01
    8    9    0.57149836E-02 -0.52231072E-02
    9    9   -0.12500889E-01 -0.17947087E-02
   10    9   -0.19523777E-01 -0.37205954E-03
   11    9   -0.86988249E-02  0.11736703E-01
   12    9   -0.13258235E-01  0.10010018E-01
    1   10    0.14574879E-01  0.91806223E-02
    2   10   -0.19997346E-02  0.43498379E-02
    3   10    0.33196410E-02 -0.30600483E-01
    4   10    0.10342581E-01 -0.14898438E-01
    5   10    0.54845727E-02  0.19305015E-01
    6   10    0.37463360E-01 -0.16315376E-01
    7   10    0.59142947E-02 -0.78417458E-02
    8   10    0.17781553E-02  0.32066364E-02
    9   10    0.17985691E-01  0.15363089E-01
   10   10   -0.15255358E-01 -0.10780310E-01
   11   10   -0.11642862E-01 -0.87304474E-02
   12   10    0.21085433E-01 -0.14271265E-01
    1   11   -0.12384967E-01 -0.14664626E-01
    2   11   -0.16774285E-01  0.17477063E-01
    3   11    0.10963638E-01 -0.15980742E-01
    4   11   -0.14229691E-02  0.83421436E-02
    5   11   -0.35320633E-02 -0.47559824E-02
    6   11   -0.15017295E-01 -0.91720537E-02
    7   11   -0.14729062E-01  0.18799722E-01
    8   11   -0.14307725E-01  0.94447076E-02
    9   11    0.15400709E-01 -0.87965565E-02
   10   11   -0.32039500E-02  0.18258501E-01
   11   11    0.14342891E-01 -0.14556802E-01
   12   11   -0.14962231E-01  0.38752284E-02
    1   12   -0.13185715E-01  0.16127761E-01
    2   12   -0.10260260E-01 -0.13049497E-02
    3   12   -0.12668398E-01  0.34954704E-02
    4   12   -0.49434592E-03 -0.64152814E-03
    5   12   -0.14267642E-01 -0.19470374E-01
    6   12    0.23888168E-01  0.17934972E-01
    7   12   -0.46273159E-03  0.17064799E-02
    8   12    0.11197646E-01 -0.18802527E-02
    9   12    0.13546457E-01 -0.93641423E-03
   10   12   -0.11768985E-01  0.25876181E-02
   11   12   -0.15814875E-02 -0.18263866E-01
   12   12   -0.24540271E-01  0.10307664E-01

   -7   -2    0
    1    1    0.45760071E-01  0.54912300E-01
    2    1   -0.62731462E-02  0.28378674E-02
    3    1    0.35665672E-03  0.19394691E-01
    4    1   -0.11745035E-02  0.14968972E-01
    5    1    0.35080663E-02 -0.10290479E-01
    6    1    0.74928394E-02  0.30033510E-01
    7    1    0.15400150E-02  0.12930031E-01
    8    1   -0.12276301E-01 -0.12622179E-01
    9    1    0.19169823E-01  0.22446872E-01
   10    1    0.35102561E-02 -0.25022763E-02
   11    1    0.23278096E-01  0.40400710E-01
   12    1    0.54774754E-02 -0.59909399E-02
    1    2   -0.31091732E-01 -0.14116509E-01
    2    2   -0.10244987E-01 -0.73009930E-01
    3    2    0.13069116E-01  0.12673590E-01
    4    2   -0.38409082E-02  0.31831968E-02
    5    2    0.16297905E-01 -0.25451623E-01
    6    2   -0.12361130E-01 -0.54297298E-02
    7    2   -0.16601096E-01  0.22128140E-01
    8    2   -0.15646765E-01  0.24927042E-01
    9    2   -0.41144255E-02 -0.12278259E-01
   10    2    0.15871989E-01  0.13163702E-01
   11    2    0.33975933E-01  0.12854919E-01
   12    2   -0.33294854E-01  0.52010362E-02
    1    3    0.27971621E-02 -0.32627834E-01
    2    3    0.25038400E-02  0.86479294E-02
    3    3    0.56260685E-02  0.94166562E-02
    4    3   -0.12123162E-01 -0.20238301E-01
    5    3    0.38351173E-02  0.39164139E-01
    6    3   -0.32717622E-01  0.71017746E-02
    7    3    0.16160036E-01 -0.35331636E-02
    8    3    0.64344660E-02 -0.77978367E-03
    9    3   -0.30174536E-02  0.16634417E-01
   10    3    0.20865207E-01 -0.24058330E-02
   11    3    0.79742958E-02  0.28409672E-01
   12    3    0.12322910E-01 -0.25838142E-02
    1    4    0.17842985E-01 -0.44796908E-02
    2    4    0.46171402E-02  0.12516560E-01
    3    4    0.41891750E-02 -0.25496839E-02
    4    4   -0.36351859E-03  0.19865907E-02
    5    4    0.15151781E-01  0.74376482E-02
    6    4   -0.98037416E-02  0.27650855E-02
    7    4    0.53495530E-03 -0.61733740E-02
    8    4   -0.28649680E-02 -0.16524351E-02
    9    4   -0.21634966E-02  0.68615215E-02
   10    4    0.84142889E-02 -0.15132769E-01
   11    4    0.19302034E-01  0.20594853E-01
   12    4    0.27395507E-02 -0.42019411E-02
    1    5   -0.69380305E-02 -0.73957079E-02
    2    5   -0.16655430E-01 -0.17319838E-01
    3    5   -0.21392663E-02  0.30932124E-01
    4    5    0.67054952E-03  0.87750835E-02
    5    5    0.57414891E-02  0.19425882E-01
    6    5    0.85323742E-02  0.11235133E-01
    7    5    0.48526683E-02  0.37685992E-02
    8    5   -0.99573406E-02 -0.68428525E-03
    9    5   -0.74588631E-02  0.23376847E-02
   10    5    0.31644006E-01 -0.96928331E-02
   11    5   -0.14227184E-01  0.70668894E-02
   12    5    0.47896562E-02  0.23686785E-01
    1    6    0.46776627E-01 -0.35411110E-01
    2    6    0.18501054E-01 -0.17222906E-01
    3    6    0.17877274E-01 -0.11962994E-01
    4    6    0.51772781E-02 -0.57070017E-02
    5    6    0.19381690E-01  0.40116377E-02
    6    6   -0.12946614E-01  0.17093586E-02
    7    6   -0.11683046E-01 -0.84529775E-02
    8    6   -0.14264599E-01  0.54820442E-02
    9    6   -0.12916365E-01  0.12498238E-01
   10    6    0.11583224E-01 -0.26203441E-01
   11    6   -0.21508351E-01  0.24825921E-01
   12    6    0.17470812E-01 -0.38645018E-01
    1    7    0.11987264E-01 -0.26250321E-01
    2    7    0.21846871E-01  0.26974141E-02
    3    7    0.36192306E-02  0.15276864E-01
    4    7    0.36691334E-02 -0.13424194E-02
    5    7    0.57050819E-02 -0.57975862E-02
    6    7    0.12542842E-02 -0.58436017E-04
    7    7   -0.42511588E-02 -0.12666593E-01
    8    7   -0.96264182E-02 -0.50120334E-02
    9    7   -0.11968433E-01 -0.12128647E-01
   10    7    0.84329699E-02  0.21000534E-01
   11    7    0.51305226E-02 -0.19951484E-01
   12    7   -0.10295032E-01 -0.83774153E-02
    1    8   -0.14304911E-01 -0.34902023E-02
    2    8    0.23947763E-01  0.59837201E-02
    3    8    0.50251530E-02  0.65776068E-02
    4    8   -0.24837028E-02  0.84103219E-03
    5    8   -0.62441019E-02 -0.10499922E-01
    6    8    0.55919878E-02  0.20853195E-01
    7    8   -0.25261099E-02 -0.20203632E-02
    8    8   -0.59962519E-02 -0.14381180E-02
    9    8    0.29573240E-02  0.12546318E-01
   10    8   -0.13110429E-01 -0.21211370E-02
   11    8    0.57116671E-02 -0.24064879E-01
   12    8    0.44727439E-02  0.36578882E-02
    1    9    0.56233778E-02 -0.93390963E-02
    2    9   -0.75972027E-02 -0.31561720E-01
    3    9   -0.41872403E-02  0.50414251E-02
    4    9    0.55976565E-03  0.62732815E-03
    5    9    0.12477717E-01 -0.95546721E-03
    6    9    0.85448217E-02  0.16551060E-01
    7    9   -0.37540194E-02 -0.15331870E-01
    8    9    0.25214792E-02  0.12023756E-01
    9    9   -0.42043692E-02  0.36365458E-02
   10    9   -0.15279929E-02 -0.23676680E-01
   11    9   -0.20189279E-02  0.17613880E-02
   12    9    0.63773049E-02 -0.36150955E-02
    1   10   -0.24731196E-01 -0.45143672E-02
    2   10   -0.13270033E-01  0.17216632E-01
    3   10   -0.88460628E-02  0.24498368E-01
    4   10   -0.12493226E-01  0.71076411E-03
    5   10   -0.17843967E-01 -0.12431987E-01
    6   10    0.95584635E-02  0.16391745E-01
    7   10   -0.11385548E-01 -0.12402883E-01
    8   10   -0.11385134E-02 -0.23699323E-01
    9   10   -0.14204608E-01 -0.61005165E-02
   10   10   -0.26530049E-02  0.14600164E-01
   11   10   -0.41178381E-02 -0.50736361E-02
   12   10   -0.17105714E-01  0.23734144E-01
    1   11    0.82307297E-03 -0.34257607E-02
    2   11    0.79029127E-02  0.35788590E-01
    3   11    0.51969596E-02  0.93442200E-02
    4   11   -0.54509785E-03  0.18075124E-01
    5   11    0.51468657E-02  0.17433260E-01
    6   11   -0.16004919E-01  0.12115869E-01
    7   11    0.16098346E-01 -0.13817342E-01
    8   11    0.75570971E-02 -0.99025789E-02
    9   11   -0.16781744E-01 -0.42209534E-02
   10   11    0.70896670E-02 -0.11105899E-01
   11   11   -0.26944422E-01 -0.28476629E-01
   12   11   -0.11217475E-02  0.94645402E-02
    1   12    0.62044252E-02 -0.33008930E-01
    2   12    0.17970058E-01  0.25778751E-03
    3   12   -0.28799843E-02 -0.45890361E-04
    4   12   -0.80764561E-02  0.10118245E-02
    5   12   -0.69434240E-02  0.20049138E-01
    6   12   -0.17916019E-01 -0.21304828E-01
    7   12   -0.13932680E-02 -0.32318274E-02
    8   12   -0.11342606E-01 -0.95156445E-02
    9   12   -0.14420799E-01 -0.65365197E-03
   10   12    0.18703326E-01  0.12051826E-01
   11   12   -0.21448069E-01  0.65549266E-02
   12   12    0.12880988E-01  0.92037490E-02

   -6   -6    0
    1    1    0.46035991E-01 -0.83457985E-08
    2    1   -0.23173218E-01  0.22735002E-01
    3    1    0.30263365E-01  0.68593111E-01
    4    1    0.28261737E-02  0.23037267E-01
    5    1   -0.34264421E-01 -0.37720963E-01
    6    1    0.27836864E-01  0.61494164E-01
    7    1   -0.74935406E-02  0.43233004E-01
    8    1   -0.23101647E-01 -0.17964980E-01
    9    1   -0.14471280E-01  0.16388049E-01
   10    1   -0.76829529E-02  0.94067015E-02
   11    1   -0.20879854E-01 -0.24640487E-01
   12    1    0.18977495E-01  0.51093612E-01
    1    2   -0.23173225E-01 -0.22735007E-01
    2    2    0.51132961E-02  0.25752184E-07
    3    2   -0.11911574E-01 -0.12433334E-02
    4    2   -0.99735091E-02 -0.19282882E-01
    5    2   -0.78428127E-02 -0.30232442E-02
    6    2   -0.31171442E-01 -0.59302139E-02
    7    2    0.15393736E-01  0.83376515E-02
    8    2    0.80826674E-02 -0.11324126E-01
    9    2   -0.23072394E-01  0.10959229E-01
   10    2    0.39817210E-02  0.15904565E-01
   11    2    0.12796552E-01 -0.99691465E-02
   12    2    0.53979047E-02  0.75768616E-02
    1    3    0.30263363E-01 -0.68593112E-01
    2    3   -0.11911565E-01  0.12433328E-02
    3    3   -0.19256598E-01 -0.50955317E-08
    4    3    0.86593228E-02 -0.50771483E-02
    5    3    0.68732146E-03 -0.14869092E-01
    6    3   -0.24339374E-01  0.32357888E-02
    7    3   -0.17821015E-01  0.53888628E-02
    8    3    0.30326313E-02 -0.31836685E-02
    9    3   -0.66474818E-02 -0.22059605E-01
   10    3    0.49523772E-02  0.53959650E-02
   11    3    0.59293901E-02  0.25273359E-01
   12    3   -0.23068586E-01 -0.46553014E-02
    1    4    0.28261718E-02 -0.23037270E-01
    2    4   -0.99735063E-02  0.19282872E-01
    3    4    0.86593173E-02  0.50771479E-02
    4    4   -0.21220229E-02 -0.10625903E-09
    5    4   -0.98254580E-03  0.79353704E-02
    6    4   -0.20226862E-02  0.14997704E-01
    7    4    0.26959779E-02  0.19071305E-02
    8    4    0.59175306E-03 -0.32402781E-02
    9    4   -0.32114549E-02 -0.81070357E-02
   10    4    0.99364801E-02 -0.69935260E-02
   11    4   -0.14697215E-01  0.69635890E-02
   12    4    0.73531166E-02 -0.81763729E-02
    1    5   -0.34264422E-01  0.37720964E-01
    2    5   -0.78428092E-02  0.30232457E-02
    3    5    0.68732592E-03  0.14869092E-01
    4    5   -0.98254592E-03 -0.79353724E-02
    5    5   -0.53736040E-01  0.42812952E-09
    6    5   -0.25110092E-01  0.11959835E-01
    7    5    0.13474300E-01  0.23959758E-01
    8    5   -0.14787646E-02 -0.17991297E-01
    9    5   -0.80611496E-02 -0.66629795E-02
   10    5   -0.77820017E-02  0.95536514E-02
   11    5    0.12160578E-01 -0.19011174E-01
   12    5    0.15869024E-01  0.26583963E-02
    1    6    0.27836858E-01 -0.61494176E-01
    2    6   -0.31171438E-01  0.59301954E-02
    3    6   -0.24339383E-01 -0.32357945E-02
    4    6   -0.20226866E-02 -0.14997708E-01
    5    6   -0.25110097E-01 -0.11959848E-01
    6    6    0.32612422E-01 -0.48061452E-08
    7    6   -0.42701585E-02 -0.45073050E-02
    8    6    0.40615267E-02  0.20772940E-02
    9    6   -0.87509259E-02 -0.46787513E-01
   10    6    0.98172528E-02  0.28219842E-01
   11    6    0.23069266E-02  0.10741351E-01
   12    6   -0.30384836E-01 -0.25071625E-01
    1    7   -0.74935428E-02 -0.43232998E-01
    2    7    0.15393732E-01 -0.83376418E-02
    3    7   -0.17821014E-01 -0.53888581E-02
    4    7    0.26959786E-02 -0.19071293E-02
    5    7    0.13474304E-01 -0.23959757E-01
    6    7   -0.42701560E-02  0.45073093E-02
    7    7    0.36714307E-02  0.18505730E-09
    8    7    0.51297442E-02 -0.34715770E-03
    9    7    0.44185809E-02 -0.79349527E-02
   10    7   -0.12327605E-01 -0.14521253E-01
   11    7    0.24893940E-01  0.24437563E-02
   12    7   -0.20574094E-02  0.88724202E-02
    1    8   -0.23101645E-01  0.17964978E-01
    2    8    0.80826594E-02  0.11324133E-01
    3    8    0.30326282E-02  0.31836787E-02
    4    8    0.59175288E-03  0.32402782E-02
    5    8   -0.14787650E-02  0.17991297E-01
    6    8    0.40615289E-02 -0.20772900E-02
    7    8    0.51297463E-02  0.34715866E-03
    8    8   -0.55367624E-03 -0.27436761E-09
    9    8    0.26406220E-02  0.78049319E-02
   10    8   -0.16748185E-01  0.92471733E-03
   11    8    0.11629313E-01 -0.75485014E-02
   12    8    0.11052188E-01 -0.24367492E-02
    1    9   -0.14471278E-01 -0.16388053E-01
    2    9   -0.23072394E-01 -0.10959230E-01
    3    9   -0.66474845E-02  0.22059599E-01
    4    9   -0.32114537E-02  0.81070337E-02
    5    9   -0.80611527E-02  0.66629786E-02
    6    9   -0.87509244E-02  0.46787507E-01
    7    9    0.44185834E-02  0.79349561E-02
    8    9    0.26406242E-02 -0.78049286E-02
    9    9    0.83269433E-02  0.25439541E-10
   10    9    0.44182482E-02  0.51261768E-02
   11    9    0.12568386E-01 -0.26375933E-02
   12    9    0.64310886E-02 -0.21456679E-02
    1   10   -0.76829517E-02 -0.94067005E-02
    2   10    0.39817219E-02 -0.15904564E-01
    3   10    0.49523859E-02 -0.53959685E-02
    4   10    0.99364840E-02  0.69935262E-02
    5   10   -0.77819983E-02 -0.95536549E-02
    6   10    0.98172629E-02 -0.28219842E-01
    7   10   -0.12327609E-01  0.14521251E-01
    8   10   -0.16748186E-01 -0.92471394E-03
    9   10    0.44182489E-02 -0.51261760E-02
   10   10   -0.24761878E-02 -0.30911581E-08
   11   10   -0.12436636E-01 -0.83374130E-02
   12   10    0.93396016E-02 -0.17538458E-01
    1   11   -0.20879862E-01  0.24640484E-01
    2   11    0.12796554E-01  0.99691464E-02
    3   11    0.59293905E-02 -0.25273358E-01
    4   11   -0.14697213E-01 -0.69635953E-02
    5   11    0.12160575E-01  0.19011180E-01
    6   11    0.23069235E-02 -0.10741353E-01
    7   11    0.24893942E-01 -0.24437636E-02
    8   11    0.11629315E-01  0.75484981E-02
    9   11    0.12568387E-01  0.26375940E-02
   10   11   -0.12436637E-01  0.83374140E-02
   11   11   -0.75414808E-02  0.21686483E-08
   12   11    0.26201897E-01 -0.24441781E-01
    1   12    0.18977491E-01 -0.51093610E-01
    2   12    0.53979042E-02 -0.75768608E-02
    3   12   -0.23068577E-01  0.46552944E-02
    4   12    0.73531206E-02  0.81763710E-02
    5   12    0.15869023E-01 -0.26584062E-02
    6   12   -0.30384819E-01  0.25071625E-01
    7   12   -0.20574166E-02 -0.88724203E-02
    8   12    0.11052187E-01  0.24367556E-02
    9   12    0.64310900E-02  0.21456637E-02
   10   12    0.93395956E-02  0.17538451E-01
   11   12    0.26201898E-01  0.24441773E-01
   12   12    0.24100748E-02 -0.64749804E-08

   -6   -5    0
    1    1   -0.28011988E-01  0.18095038E-01
    2    1    0.30566622E-01  0.24930054E-01
    3    1    0.14309918E-01 -0.35828995E-01
    4    1   -0.13216404E-01 -0.13447468E-01
    5    1    0.58030479E-01  0.11072743E-01
    6    1   -0.40561086E-01 -0.12523977E-01
    7    1    0.12189933E-02 -0.18988971E-01
    8    1    0.21304597E-01 -0.98722017E-03
    9    1    0.31492818E-02 -0.57459058E-02
   10    1    0.38879786E-02 -0.76590325E-02
   11    1    0.31055125E-01  0.22643955E-01
   12    1   -0.18205646E-01 -0.46261832E-01
    1    2    0.18106004E-01  0.29717162E-01
    2    2   -0.56211933E-01  0.61433272E-01
    3    2    0.30699865E-01  0.28840066E-02
    4    2    0.19653457E-02  0.65987774E-02
    5    2    0.20007898E-01 -0.10641953E-01
    6    2    0.33040468E-01 -0.15001966E-02
    7    2   -0.18913369E-01  0.22753694E-04
    8    2   -0.14499484E-01  0.67606952E-02
    9    2    0.28827246E-01 -0.24781547E-02
   10    2   -0.53943736E-02 -0.18248721E-01
   11    2   -0.93904047E-02  0.68290936E-02
   12    2    0.95088500E-04 -0.25947672E-01
    1    3   -0.20936014E-01  0.42949592E-01
    2    3    0.15093315E-01  0.35169732E-02
    3    3    0.14187699E-01 -0.31461324E-02
    4    3    0.13682398E-01  0.24405745E-03
    5    3    0.20887292E-01  0.92367005E-02
    6    3    0.35595974E-01 -0.78350957E-02
    7    3    0.32567409E-02 -0.30718012E-02
    8    3   -0.17122783E-01  0.21923044E-01
    9    3    0.46392219E-03  0.76930048E-02
   10    3   -0.17004526E-01  0.45981868E-02
   11    3   -0.23150940E-03 -0.39076843E-02
   12    3    0.35043491E-01  0.11351470E-01
    1    4    0.56864203E-02  0.19206164E-01
    2    4    0.22716036E-01 -0.15980722E-01
    3    4    0.49849415E-02 -0.13969542E-01
    4    4    0.10663396E-02 -0.88030553E-03
    5    4    0.43179417E-02 -0.43807874E-02
    6    4    0.79714714E-02 -0.61526479E-02
    7    4   -0.34054225E-02  0.67048894E-03
    8    4   -0.11217505E-03  0.40948899E-02
    9    4    0.31354728E-02 -0.74521810E-03
   10    4   -0.95123789E-02 -0.18136289E-02
   11    4   -0.24562497E-03 -0.76477548E-02
   12    4    0.22061003E-02 -0.98496584E-02
    1    5    0.32380413E-02 -0.58781096E-01
    2    5   -0.11417279E-01  0.45600640E-02
    3    5   -0.10602321E-01  0.12367944E-01
    4    5    0.95107678E-02 -0.12596531E-02
    5    5    0.29871756E-01 -0.39034926E-01
    6    5    0.27960560E-02  0.73048150E-03
    7    5   -0.19751476E-01 -0.14431175E-01
    8    5    0.13693557E-01  0.62543510E-02
    9    5    0.18635482E-01 -0.11828434E-02
   10    5    0.52986030E-02 -0.15578652E-01
   11    5    0.25262772E-01  0.30060734E-01
   12    5   -0.25598397E-01 -0.33912079E-02
    1    6   -0.48706832E-02  0.74756282E-01
    2    6    0.28748386E-01  0.70791737E-02
    3    6   -0.28284908E-02 -0.24882305E-02
    4    6   -0.20980110E-02  0.90964435E-02
    5    6    0.19853510E-01  0.54715598E-02
    6    6    0.11511930E-02  0.89036255E-02
    7    6   -0.40368387E-02  0.62286745E-02
    8    6   -0.60604165E-02 -0.11052513E-02
    9    6    0.20942014E-01  0.25233220E-01
   10    6   -0.22451567E-01 -0.31642013E-01
   11    6   -0.10309735E-01 -0.14441915E-01
   12    6    0.17983036E-01  0.37138466E-01
    1    7    0.35761355E-01  0.29510295E-01
    2    7   -0.30786660E-01  0.10918397E-02
    3    7    0.76866847E-02  0.70318332E-02
    4    7    0.25712296E-02  0.14102044E-02
    5    7    0.87040643E-02  0.14889256E-01
    6    7   -0.69485658E-02 -0.10202045E-01
    7    7    0.63710146E-02 -0.64682058E-02
    8    7   -0.19972543E-02 -0.99605912E-03
    9    7   -0.34858063E-02 -0.56120250E-02
   10    7    0.21913536E-01  0.17384530E-01
   11    7   -0.25459261E-01  0.43217029E-02
   12    7    0.19010060E-02 -0.98960364E-02
    1    8    0.77583366E-02 -0.25366797E-01
    2    8   -0.12039174E-01 -0.19990315E-01
    3    8   -0.13816720E-01  0.24970083E-02
    4    8   -0.69183829E-03 -0.28238774E-02
    5    8   -0.40624899E-02 -0.23211692E-01
    6    8    0.11071271E-02  0.17342887E-02
    7    8   -0.21068090E-02  0.54500718E-02
    8    8   -0.22126363E-02  0.27493794E-02
    9    8    0.40077636E-02 -0.14429749E-03
   10    8    0.59834796E-03  0.11679145E-01
   11    8   -0.41844589E-02  0.57492082E-02
   12    8   -0.14243743E-01 -0.89229881E-03
    1    9    0.18498329E-01  0.13458047E-01
    2    9    0.78049048E-02  0.17974427E-02
    3    9   -0.14413456E-01 -0.18065974E-01
    4    9   -0.12523256E-02 -0.12820414E-01
    5    9    0.89648840E-02 -0.10610172E-01
    6    9    0.46743827E-03 -0.36511626E-01
    7    9   -0.11036532E-01 -0.35600889E-02
    8    9    0.42432132E-02  0.10789694E-01
    9    9   -0.23443876E-02 -0.27758670E-01
   10    9   -0.22761375E-01 -0.53130939E-02
   11    9   -0.30084983E-01 -0.14593783E-01
   12    9   -0.15147717E-01 -0.13520254E-01
    1   10    0.32211663E-02 -0.78340094E-02
    2   10   -0.26062375E-02  0.18287437E-01
    3   10    0.54136856E-02  0.26879311E-02
    4   10    0.16771795E-03 -0.83077465E-02
    5   10    0.12954194E-01 -0.80389552E-02
    6   10    0.62216183E-02  0.58549858E-02
    7   10    0.59018046E-02 -0.16390458E-01
    8   10    0.56031789E-02  0.11004878E-03
    9   10    0.79106979E-02 -0.14423197E-03
   10   10    0.61907012E-02  0.12963301E-01
   11   10    0.20693818E-01 -0.17223210E-02
   12   10    0.98389968E-02  0.28991945E-02
    1   11   -0.21460408E-01 -0.34817470E-01
    2   11    0.46705964E-02 -0.14828148E-01
    3   11   -0.26589592E-01  0.11336455E-01
    4   11   -0.28367712E-02  0.36014337E-02
    5   11   -0.46222449E-02 -0.89652646E-02
    6   11   -0.15080771E-01  0.39245526E-02
    7   11    0.11338683E-01  0.16149281E-01
    8   11    0.64699771E-02 -0.47466248E-02
    9   11   -0.93149592E-02 -0.55200756E-02
   10   11    0.50709427E-02 -0.70714332E-02
   11   11    0.15705861E-01 -0.51299809E-02
   12   11   -0.10097921E-01  0.35176304E-01
    1   12    0.14790426E-01  0.23188605E-01
    2   12    0.46489942E-02  0.70608997E-02
    3   12    0.19233720E-01 -0.69094874E-02
    4   12   -0.14151910E-02 -0.30895688E-02
    5   12   -0.11575190E-01 -0.77107253E-03
    6   12    0.39226828E-01  0.19459189E-01
    7   12   -0.72352647E-02  0.42567132E-02
    8   12   -0.13259392E-01 -0.47603390E-02
    9   12    0.23340946E-02  0.88158205E-02
   10   12   -0.14630042E-01 -0.32613829E-01
   11   12   -0.34888834E-01 -0.67649037E-02
   12   12    0.18390512E-01 -0.22001619E-01

   -6   -4    0
    1    1    0.17462388E-01  0.17546986E-01
    2    1   -0.21702803E-01 -0.59641329E-01
    3    1    0.14528341E-01 -0.31310868E-01
    4    1    0.11903688E-01  0.10519042E-01
    5    1   -0.52621536E-01 -0.75356432E-02
    6    1    0.63401154E-02  0.24314197E-01
    7    1   -0.86605498E-02  0.53824805E-02
    8    1   -0.11842805E-01  0.63454492E-02
    9    1   -0.95707433E-02  0.61112679E-02
   10    1    0.15398222E-01 -0.42433362E-02
   11    1   -0.14745687E-02  0.17090791E-01
   12    1    0.13902681E-01 -0.18849817E-02
    1    2   -0.34183248E-01 -0.13437298E-01
    2    2    0.10300315E+00 -0.24465233E-01
    3    2   -0.14535872E-01 -0.16796928E-01
    4    2   -0.16533932E-01  0.20978447E-03
    5    2   -0.79617092E-03  0.17848840E-01
    6    2   -0.41424841E-01 -0.29754810E-02
    7    2    0.23609159E-01  0.12391007E-01
    8    2    0.18685179E-01  0.18914167E-02
    9    2   -0.11100859E-01 -0.48497543E-02
   10    2   -0.61047788E-02  0.23356724E-01
   11    2    0.10931319E-01  0.34793348E-02
   12    2   -0.52325922E-02  0.18130507E-01
    1    3   -0.14420869E-03 -0.15901283E-01
    2    3    0.18749893E-02 -0.39499070E-03
    3    3   -0.11381283E-01 -0.15100510E-02
    4    3   -0.96834960E-02  0.15932589E-02
    5    3   -0.20445857E-01  0.83770638E-02
    6    3   -0.59246288E-01 -0.31523887E-02
    7    3    0.17500113E-01  0.19830639E-01
    8    3    0.75021469E-02  0.12663328E-02
    9    3   -0.58976207E-02 -0.43083034E-02
   10    3    0.16653499E-01  0.21657945E-01
   11    3    0.17825164E-01 -0.56823710E-03
   12    3   -0.33607503E-01  0.16656654E-01
    1    4   -0.31863829E-02  0.53370735E-04
    2    4   -0.27162734E-01  0.11568967E-02
    3    4   -0.87797311E-02 -0.20109869E-01
    4    4    0.18705099E-02  0.66230454E-03
    5    4   -0.11207743E-01  0.27787285E-02
    6    4   -0.10786670E-01  0.74213874E-02
    7    4    0.32855850E-02 -0.18235094E-02
    8    4    0.12690091E-02 -0.57629383E-03
    9    4   -0.87080267E-02 -0.22693860E-02
   10    4    0.89712887E-02  0.30840250E-02
   11    4    0.13696996E-01  0.18165580E-01
   12    4   -0.14618326E-01  0.11247994E-01
    1    5    0.12994837E-01  0.33320782E-01
    2    5    0.81601891E-02 -0.26941658E-01
    3    5   -0.18879863E-01 -0.15696569E-01
    4    5   -0.28300760E-02 -0.29369376E-02
    5    5   -0.17965780E-01  0.41764712E-01
    6    5   -0.93858780E-03 -0.23338948E-01
    7    5    0.55554547E-02  0.53707378E-02
    8    5   -0.15437804E-01  0.48645478E-02
    9    5   -0.10064745E-01  0.92105022E-02
   10    5   -0.11372429E-01  0.17924113E-01
   11    5   -0.29991124E-01  0.14469177E-01
   12    5    0.79990112E-02  0.85450022E-02
    1    6   -0.28357193E-02 -0.44036222E-01
    2    6   -0.24299067E-01 -0.36538001E-01
    3    6   -0.93224043E-02 -0.99615019E-02
    4    6    0.33976842E-02 -0.49012247E-02
    5    6   -0.60554251E-02  0.20183612E-01
    6    6   -0.37171855E-01 -0.38935950E-01
    7    6   -0.41457054E-03 -0.65503329E-03
    8    6    0.12732880E-01  0.16540233E-01
    9    6   -0.16976941E-01  0.16808698E-02
   10    6    0.12833298E-01  0.13167386E-01
   11    6    0.24898038E-01  0.22847584E-01
   12    6   -0.33586529E-01 -0.18015809E-01
    1    7   -0.47736601E-01  0.49828717E-02
    2    7    0.28609429E-01  0.26091415E-01
    3    7    0.23347320E-01  0.56128575E-02
    4    7   -0.46385951E-02 -0.20199629E-02
    5    7   -0.68014033E-02  0.55686566E-02
    6    7    0.31133915E-01 -0.34800720E-02
    7    7   -0.50515230E-02  0.40515770E-02
    8    7   -0.31299210E-02 -0.43513888E-02
    9    7    0.11902949E-01  0.19701877E-02
   10    7   -0.78230639E-02 -0.11530953E-01
   11    7    0.60257266E-02 -0.60125452E-02
   12    7    0.10774662E-01  0.93596028E-02
    1    8    0.71831989E-02  0.12475217E-01
    2    8    0.20023055E-01  0.36529679E-01
    3    8    0.12567658E-01 -0.11423484E-01
    4    8    0.33603027E-03 -0.62129956E-03
    5    8    0.18718731E-01  0.83474350E-02
    6    8    0.18391301E-01  0.10446517E-01
    7    8    0.19030471E-02 -0.39026454E-02
    8    8    0.87234043E-03 -0.30614806E-02
    9    8   -0.71533690E-02  0.61881855E-03
   10    8    0.68026847E-02 -0.21636124E-01
   11    8   -0.13860029E-01 -0.11263147E-01
   12    8    0.31614932E-02 -0.77796501E-02
    1    9   -0.23278684E-01  0.33994633E-03
    2    9   -0.13605287E-01  0.48674033E-02
    3    9    0.24945347E-01  0.97406333E-02
    4    9   -0.11375602E-02  0.46024076E-02
    5    9   -0.16322896E-02  0.18965584E-01
    6    9    0.51190788E-02  0.11912319E-01
    7    9    0.41627992E-02 -0.12289603E-02
    8    9   -0.42933992E-02 -0.83788748E-02
    9    9    0.53974844E-02  0.29811597E-01
   10    9    0.32896012E-03 -0.15480050E-02
   11    9    0.71245320E-02 -0.17044209E-02
   12    9   -0.26767261E-02  0.20647498E-01
    1   10   -0.77113713E-02  0.13246762E-01
    2   10    0.18612753E-02 -0.14188563E-01
    3   10   -0.29170801E-02 -0.12457516E-02
    4   10   -0.44255664E-02  0.29600338E-02
    5   10   -0.66323929E-02  0.65215404E-02
    6   10    0.26277924E-02 -0.14695651E-01
    7   10    0.13790609E-02  0.20434802E-01
    8   10    0.97011164E-02  0.87258810E-03
    9   10    0.43846183E-02 -0.29390184E-02
   10   10   -0.85621646E-02 -0.20700918E-01
   11   10   -0.24157870E-01  0.95315410E-02
   12   10   -0.14255245E-01 -0.28117457E-02
    1   11    0.23218171E-01  0.30868574E-01
    2   11   -0.16774525E-01  0.12312713E-01
    3   11   -0.91725765E-02  0.12149162E-01
    4   11    0.12653006E-02  0.16755237E-01
    5   11    0.14766460E-01  0.95967053E-02
    6   11    0.36659013E-02 -0.23319596E-01
    7   11    0.48888366E-02 -0.15100282E-01
    8   11   -0.63187920E-02 -0.19973300E-01
    9   11    0.12015016E-01 -0.16720757E-01
   10   11    0.62683955E-02 -0.27510887E-02
   11   11   -0.14312276E-01 -0.12431281E-01
   12   11    0.10282697E-01 -0.17595224E-01
    1   12   -0.28384108E-01 -0.16546483E-01
    2   12    0.25577413E-01 -0.15747962E-01
    3   12   -0.43395916E-01 -0.77776711E-02
    4   12    0.24946481E-02 -0.12629377E-01
    5   12   -0.28117766E-02  0.57689177E-02
    6   12   -0.29048546E-01 -0.70598252E-01
    7   12   -0.10266094E-01  0.25994510E-02
    8   12    0.97020340E-02  0.11019312E-01
    9   12    0.12747168E-02 -0.28448873E-01
   10   12    0.13745454E-01  0.16959287E-01
   11   12    0.15212489E-01 -0.25457139E-02
   12   12   -0.53223037E-01  0.38130796E-02

   -6   -3    0
    1    1   -0.52699444E-01 -0.34689268E-01
    2    1    0.20198046E-01  0.41710867E-01
    3    1   -0.34140039E-01 -0.62734931E-01
    4    1   -0.81788623E-02 -0.12070455E-01
    5    1    0.32332420E-01 -0.24435705E-01
    6    1   -0.10307468E-02 -0.44189368E-01
    7    1    0.78759036E-02 -0.16564155E-01
    8    1    0.42522149E-02  0.18658478E-02
    9    1    0.89202978E-04 -0.10271832E-01
   10    1   -0.70002828E-02  0.37822637E-02
   11    1   -0.15424982E-01 -0.21401285E-01
   12    1   -0.27611480E-01  0.59597250E-02
    1    2    0.51234049E-01  0.21527533E-01
    2    2   -0.10059402E+00 -0.44989767E-01
    3    2   -0.59365555E-02 -0.18575875E-01
    4    2    0.20691987E-01  0.16881671E-01
    5    2   -0.44670515E-02 -0.10746916E-01
    6    2    0.35980877E-01  0.84090542E-02
    7    2   -0.10155321E-01 -0.22545624E-01
    8    2   -0.29889914E-02 -0.98430851E-02
    9    2   -0.43542797E-02  0.11658704E-01
   10    2    0.25186348E-01 -0.16483017E-01
   11    2   -0.54730920E-02 -0.25859221E-03
   12    2    0.51220561E-02 -0.15717815E-01
    1    3   -0.23678457E-01  0.55111129E-01
    2    3    0.18844163E-01  0.10962449E-01
    3    3    0.13167137E-01  0.33504204E-02
    4    3    0.36476086E-02  0.15782556E-01
    5    3    0.20676595E-02 -0.12377886E-01
    6    3    0.28813687E-01  0.28378072E-01
    7    3    0.40767725E-02 -0.21178317E-01
    8    3   -0.18982539E-02 -0.48662544E-02
    9    3    0.95772512E-02  0.20106751E-01
   10    3    0.69863861E-03 -0.13420841E-01
   11    3   -0.10242067E-01 -0.44204970E-03
   12    3    0.51025173E-01 -0.24667988E-01
    1    4   -0.46762007E-02 -0.35735001E-02
    2    4    0.15691586E-01  0.13271912E-01
    3    4   -0.22204324E-01 -0.10065309E-01
    4    4    0.39222257E-03 -0.81387263E-04
    5    4    0.11892856E-02 -0.19245601E-01
    6    4    0.58597269E-02  0.12443782E-01
    7    4   -0.10298096E-02 -0.55186983E-02
    8    4   -0.17353696E-02 -0.18157104E-02
    9    4    0.62495725E-02  0.56882559E-02
   10    4   -0.87289370E-02 -0.10399983E-01
   11    4   -0.26865889E-02  0.11475669E-01
   12    4    0.78113416E-02 -0.37902235E-02
    1    5   -0.35910379E-01 -0.62085748E-02
    2    5   -0.16028947E-01  0.24569756E-01
    3    5    0.22474226E-01  0.69280588E-02
    4    5   -0.14211858E-01 -0.41092647E-02
    5    5   -0.27423261E-02 -0.22353512E-01
    6    5   -0.21448455E-01 -0.12622526E-02
    7    5   -0.66425144E-03 -0.51408191E-03
    8    5    0.57510119E-02 -0.21009773E-01
    9    5    0.74743199E-02 -0.15420243E-01
   10    5    0.86493330E-02  0.97254011E-02
   11    5    0.66730457E-02 -0.22063325E-02
   12    5    0.30629419E-02  0.22614715E-01
    1    6   -0.87530831E-02  0.28743964E-01
    2    6   -0.62505102E-02  0.34893364E-01
    3    6    0.31917813E-02  0.94973396E-02
    4    6   -0.19486458E-02  0.22985186E-02
    5    6   -0.27770072E-01 -0.26778066E-01
    6    6    0.56777923E-01  0.70590456E-01
    7    6    0.17666948E-01 -0.37216666E-02
    8    6    0.14084465E-02 -0.46830133E-02
    9    6    0.24352873E-01  0.11607636E-01
   10    6   -0.17225066E-01 -0.86200809E-02
   11    6   -0.40334342E-02 -0.84569936E-02
   12    6    0.45826367E-01  0.11287948E-01
    1    7    0.69292061E-02 -0.99747155E-02
    2    7   -0.21753723E-01 -0.32943492E-01
    3    7   -0.14485561E-01 -0.90502248E-02
    4    7   -0.59657705E-02  0.48677604E-03
    5    7   -0.86479424E-03 -0.12581818E-01
    6    7   -0.31078669E-01 -0.11559813E-01
    7    7    0.30334458E-02  0.76370254E-02
    8    7    0.12785863E-01  0.43266077E-03
    9    7    0.56589159E-03  0.16930785E-02
   10    7   -0.90854732E-02  0.52274803E-02
   11    7   -0.12502316E-01  0.27430181E-01
   12    7   -0.28973090E-01 -0.11352781E-01
    1    8   -0.77850613E-02 -0.62403943E-02
    2    8   -0.58977449E-02 -0.43208292E-01
    3    8   -0.10878532E-01 -0.13258054E-01
    4    8    0.23533680E-02 -0.13264243E-02
    5    8   -0.22352707E-01 -0.22972595E-02
    6    8   -0.45427496E-02 -0.28839237E-01
    7    8   -0.46845244E-02 -0.19982569E-02
    8    8    0.47687239E-02  0.71336895E-02
    9    8    0.10913898E-01 -0.70012271E-02
   10    8   -0.98580251E-02  0.10532418E-01
   11    8    0.68461294E-02  0.85017656E-02
   12    8   -0.14934875E-01 -0.58831493E-02
    1    9    0.92133237E-02 -0.28919827E-02
    2    9   -0.14869203E-02  0.14263992E-01
    3    9   -0.11369705E-01 -0.16843541E-02
    4    9    0.32193904E-02 -0.20998482E-02
    5    9   -0.13207555E-01 -0.14635432E-01
    6    9    0.59032871E-02 -0.21363394E-01
    7    9   -0.19043753E-02  0.56817490E-02
    8    9    0.26579157E-02  0.34175032E-02
    9    9    0.12856679E-01  0.15367271E-01
   10    9    0.13385201E-01  0.17003451E-02
   11    9    0.26422838E-03  0.23137652E-01
   12    9   -0.49167374E-02 -0.21834898E-01
    1   10   -0.13812399E-02  0.19548610E-01
    2   10   -0.49601202E-02 -0.94734492E-02
    3   10   -0.79773663E-02  0.16878443E-01
    4   10   -0.14506881E-01  0.79298346E-02
    5   10    0.26109390E-01  0.19851490E-01
    6   10   -0.53709950E-01 -0.83846902E-02
    7   10    0.14054472E-02 -0.17000179E-01
    8   10    0.76926693E-04 -0.12060513E-01
    9   10   -0.17707600E-01 -0.42249167E-02
   10   10    0.32953454E-01 -0.15246764E-01
   11   10    0.15925884E-01 -0.51079511E-02
   12   10   -0.21581355E-02  0.60450875E-03
    1   11   -0.45534187E-01 -0.53750284E-02
    2   11    0.11606664E-02  0.46555628E-02
    3   11    0.34395532E-02  0.10482661E-01
    4   11   -0.48947972E-02  0.57004258E-02
    5   11    0.18624736E-01 -0.10894581E-01
    6   11   -0.27316660E-02  0.25552823E-01
    7   11   -0.44180381E-03 -0.39879769E-02
    8   11   -0.54361070E-02  0.31992537E-02
    9   11    0.13630584E-02  0.15192422E-01
   10   11   -0.18336778E-02 -0.31006418E-02
   11   11   -0.13903149E-01 -0.29363480E-03
   12   11    0.12302811E-02 -0.15015026E-02
    1   12   -0.55429965E-02  0.62086391E-02
    2   12   -0.29447270E-01  0.66597779E-02
    3   12    0.22966374E-01  0.19841033E-01
    4   12    0.18569958E-03  0.14836866E-01
    5   12   -0.66856768E-02  0.22101230E-01
    6   12    0.21190416E-01  0.36496333E-01
    7   12    0.12860126E-01  0.35881510E-02
    8   12   -0.96419493E-02 -0.87146978E-02
    9   12    0.56937457E-02  0.24687830E-01
   10   12   -0.15374039E-01 -0.11916227E-01
   11   12   -0.57017798E-02  0.13677653E-01
   12   12    0.60399624E-01  0.13088446E-01

   -6   -2    0
    1    1    0.86168463E-01 -0.12549080E-01
    2    1   -0.18953974E-01 -0.24664994E-01
    3    1    0.88968560E-02  0.62244046E-01
    4    1    0.87463444E-02  0.92109553E-02
    5    1   -0.91175825E-02  0.23161670E-01
    6    1    0.10920815E-01  0.39956494E-01
    7    1    0.13782145E-01  0.15581497E-01
    8    1   -0.52929731E-02 -0.33703657E-02
    9    1   -0.78428954E-02 -0.41568279E-02
   10    1   -0.16173004E-02 -0.13057351E-01
   11    1    0.35395943E-01 -0.27539108E-01
   12    1    0.11497440E-01  0.22529834E-01
    1    2   -0.32889284E-01 -0.26036401E-01
    2    2    0.37977654E-01  0.83670880E-01
    3    2   -0.35162136E-01 -0.17770598E-02
    4    2   -0.45750280E-02 -0.23639707E-01
    5    2   -0.91912431E-02 -0.26391529E-02
    6    2    0.19503472E-02 -0.14194077E-01
    7    2   -0.75319627E-02  0.32760679E-02
    8    2   -0.94489716E-02  0.82550904E-02
    9    2   -0.99000380E-03  0.92967113E-02
   10    2   -0.21709875E-01 -0.97789023E-02
   11    2   -0.12960097E-01  0.13652313E-01
   12    2    0.12131601E-01  0.73249915E-02
    1    3    0.29420314E-01 -0.64060650E-01
    2    3   -0.53420874E-02 -0.11272951E-01
    3    3   -0.19303072E-01  0.67966307E-03
    4    3    0.14822284E-01 -0.10113198E-01
    5    3    0.19199885E-02  0.71180114E-03
    6    3   -0.84067246E-02 -0.16587659E-01
    7    3   -0.56121423E-02  0.13998284E-01
    8    3   -0.31589709E-02  0.14397557E-01
    9    3   -0.47777629E-02 -0.20976605E-01
   10    3   -0.19406695E-03  0.15420095E-01
   11    3    0.19423643E-02  0.11627926E-02
   12    3   -0.51896788E-01 -0.40492100E-02
    1    4    0.98622175E-02 -0.20547774E-01
    2    4   -0.19749855E-02 -0.15247872E-01
    3    4    0.10536461E-03  0.70095351E-02
    4    4    0.38143237E-02 -0.53059787E-03
    5    4    0.85225354E-02  0.25177934E-02
    6    4   -0.17525045E-02 -0.41353114E-02
    7    4   -0.23254714E-02  0.18299543E-02
    8    4   -0.23647779E-04  0.86833358E-03
    9    4   -0.70954542E-02 -0.75286116E-02
   10    4    0.35960524E-02  0.50008919E-02
   11    4    0.13112565E-02 -0.36433962E-01
   12    4   -0.11948173E-01  0.36766247E-02
    1    5   -0.12275221E-02 -0.60801171E-02
    2    5    0.16869599E-01 -0.14579203E-01
    3    5    0.81027284E-02  0.13142399E-01
    4    5    0.50471819E-02 -0.85177375E-03
    5    5    0.15039609E-01 -0.16484037E-02
    6    5    0.49387029E-01 -0.16270013E-01
    7    5    0.76554192E-02 -0.48314551E-02
    8    5   -0.10212857E-01  0.16641959E-01
    9    5    0.10362194E-01  0.72003758E-02
   10    5   -0.17249265E-01 -0.13743157E-02
   11    5    0.19255337E-02  0.20738212E-01
   12    5   -0.20291186E-02  0.16828318E-02
    1    6    0.31429585E-01 -0.58641245E-01
    2    6    0.10232323E-01 -0.21871768E-01
    3    6   -0.19479753E-01 -0.27155592E-03
    4    6    0.25218036E-02 -0.43049056E-02
    5    6    0.21149962E-01 -0.78128036E-02
    6    6   -0.49061886E-01 -0.16657854E-01
    7    6   -0.82460339E-02 -0.41732295E-02
    8    6   -0.42320583E-02 -0.11070676E-01
    9    6   -0.24433061E-01 -0.19410814E-01
   10    6    0.28192166E-01  0.12250250E-01
   11    6   -0.30027587E-02 -0.42933609E-02
   12    6   -0.66699582E-01  0.44906485E-02
    1    7    0.32541468E-02  0.19298342E-02
    2    7   -0.28651458E-02  0.14503111E-01
    3    7   -0.27004862E-03  0.11601387E-01
    4    7   -0.51979156E-03  0.57207515E-02
    5    7    0.11812314E-01 -0.19504756E-02
    6    7   -0.73065418E-03  0.82191666E-02
    7    7   -0.44662311E-02 -0.64561939E-02
    8    7   -0.70735928E-02 -0.32048211E-02
    9    7   -0.16115565E-02  0.58970704E-02
   10    7    0.68099678E-02 -0.29887264E-02
   11    7   -0.77099731E-02 -0.24763347E-01
   12    7    0.55995525E-02  0.76113747E-02
    1    8    0.49753736E-02 -0.17531134E-02
    2    8   -0.25947507E-01  0.19593583E-01
    3    8   -0.74959815E-02  0.14273647E-01
    4    8   -0.25359519E-02 -0.40317760E-02
    5    8   -0.83015781E-02 -0.96051057E-02
    6    8   -0.56227764E-02  0.12009897E-01
    7    8    0.42737821E-03  0.85376051E-02
    8    8   -0.36610428E-02 -0.45357978E-02
    9    8    0.21228498E-02  0.10163404E-01
   10    8   -0.14958170E-01  0.11219935E-02
   11    8   -0.44718737E-02 -0.12830223E-01
   12    8   -0.70947904E-02  0.24473656E-01
    1    9    0.17018505E-01 -0.10419474E-01
    2    9    0.78777377E-02 -0.42939684E-02
    3    9    0.44416739E-02 -0.60691846E-02
    4    9    0.34708046E-02  0.78781826E-03
    5    9    0.33564250E-02  0.18299487E-03
    6    9   -0.65235886E-02  0.14751388E-01
    7    9    0.93787936E-05  0.23873195E-02
    8    9    0.12117338E-01 -0.75172257E-03
    9    9    0.43214878E-02 -0.49366560E-02
   10    9    0.28954246E-01  0.20971716E-01
   11    9   -0.32862414E-02 -0.71673570E-02
   12    9    0.65898504E-02  0.88317675E-02
    1   10    0.64776974E-02 -0.22508352E-02
    2   10   -0.16418852E-02  0.24450287E-01
    3   10    0.31384013E-01 -0.45781549E-02
    4   10    0.15776433E-01  0.49422228E-02
    5   10   -0.10838405E-01 -0.13476136E-01
    6   10    0.55399802E-01  0.12913837E-01
    7   10    0.37084868E-02  0.81804071E-02
    8   10   -0.83181780E-02 -0.18623260E-02
    9   10    0.80699793E-02  0.34130919E-02
   10   10   -0.10545553E-01  0.83502322E-02
   11   10    0.27496176E-02  0.17677705E-02
   12   10    0.19003373E-01 -0.25983485E-01
    1   11   -0.10681413E-02 -0.11985421E-01
    2   11    0.14064574E-01 -0.12452945E-01
    3   11   -0.88627047E-02 -0.47798198E-02
    4   11    0.84642739E-02 -0.10663567E-01
    5   11   -0.71402384E-03 -0.22721522E-04
    6   11   -0.16863815E-02 -0.18396431E-01
    7   11   -0.48775331E-02  0.81105192E-02
    8   11    0.14102309E-01  0.26694770E-02
    9   11    0.10296563E-01 -0.69307629E-03
   10   11   -0.20292098E-01 -0.44745774E-02
   11   11   -0.26257340E-01 -0.77925065E-02
   12   11   -0.74372973E-02 -0.21285051E-01
    1   12   -0.12742399E-01 -0.24209596E-02
    2   12    0.95736030E-02  0.15121467E-01
    3   12   -0.98124250E-02 -0.13059576E-01
    4   12   -0.42285051E-02 -0.92152544E-02
    5   12    0.40494778E-02 -0.24630925E-01
    6   12   -0.35525583E-02 -0.10390271E-01
    7   12   -0.50689072E-02 -0.88638400E-02
    8   12    0.78846722E-02 -0.11146147E-01
    9   12   -0.60983133E-02 -0.21925573E-01
   10   12   -0.52858451E-02  0.77929294E-02
   11   12   -0.10426949E-02 -0.11801113E-01
   12   12   -0.51343960E-01 -0.31108592E-01

   -6   -1    0
    1    1   -0.49703995E-01  0.44793286E-01
    2    1    0.48784774E-02  0.20142161E-01
    3    1   -0.92769100E-02 -0.15846727E-01
    4    1   -0.45628286E-02  0.24517819E-02
    5    1    0.48119799E-02 -0.12289600E-01
    6    1    0.67817398E-02 -0.18791683E-03
    7    1   -0.11573419E-01  0.15948393E-02
    8    1   -0.37644586E-03 -0.33011621E-02
    9    1   -0.65998487E-02 -0.16521482E-02
   10    1    0.71740493E-02  0.78089153E-02
   11    1    0.11921816E-01  0.11079464E-01
   12    1   -0.88327289E-02 -0.13269779E-01
    1    2   -0.38624414E-02 -0.48171444E-02
    2    2    0.13685649E-01 -0.64536531E-01
    3    2   -0.17399393E-03  0.25904142E-01
    4    2   -0.59808742E-02  0.10480222E-01
    5    2    0.22359089E-02  0.16241605E-01
    6    2   -0.32053042E-01 -0.20316067E-02
    7    2   -0.10935866E-02  0.17015819E-01
    8    2    0.10051512E-01  0.10307966E-01
    9    2    0.15741201E-01 -0.26683381E-02
   10    2   -0.73558912E-02  0.32825749E-02
   11    2   -0.28203669E-02 -0.65097877E-02
   12    2   -0.15161616E-01 -0.61358317E-03
    1    3    0.65988417E-03  0.35846696E-01
    2    3    0.87571783E-02  0.25766448E-01
    3    3    0.12883949E-01  0.10254089E-01
    4    3   -0.11566956E-02  0.28260000E-02
    5    3   -0.88972784E-02  0.20894302E-02
    6    3   -0.16473086E-01 -0.10264254E-01
    7    3    0.27876045E-02 -0.44889687E-02
    8    3   -0.74063145E-02  0.61630894E-02
    9    3   -0.11498426E-01  0.12627767E-01
   10    3    0.36112350E-02 -0.85289176E-02
   11    3    0.41206876E-02  0.10932022E-01
   12    3    0.28453257E-01  0.13785544E-01
    1    4    0.77171528E-02  0.17312514E-01
    2    4   -0.21611139E-02 -0.62794429E-03
    3    4   -0.42287325E-02  0.52871494E-03
    4    4    0.11010270E-04  0.19763430E-02
    5    4   -0.59502200E-02  0.86786520E-02
    6    4   -0.51836425E-02 -0.12169140E-02
    7    4   -0.47549071E-03 -0.19991496E-02
    8    4    0.59965274E-03  0.20375136E-02
    9    4   -0.10927631E-02 -0.17797159E-02
   10    4    0.29575346E-04 -0.60123915E-02
   11    4    0.98243754E-02 -0.17865095E-01
   12    4    0.10334927E-01  0.33011664E-02
    1    5    0.23611694E-01  0.72804887E-03
    2    5    0.94637424E-02 -0.41809447E-02
    3    5   -0.37997766E-01 -0.19459849E-01
    4    5   -0.11337293E-02  0.35834279E-02
    5    5   -0.15442110E-01 -0.13860380E-02
    6    5   -0.35325759E-01  0.90562621E-02
    7    5   -0.29645006E-02  0.11167883E-01
    8    5   -0.15370124E-01 -0.82647034E-02
    9    5   -0.17293381E-01 -0.32038268E-02
   10    5    0.23515204E-01  0.48816712E-03
   11    5    0.25465147E-02  0.19449860E-01
   12    5   -0.24561078E-01  0.12292857E-01
    1    6    0.28599246E-01  0.63444040E-01
    2    6   -0.56593774E-02  0.10769605E-01
    3    6    0.17189405E-01 -0.77287870E-02
    4    6    0.61497403E-02  0.46601722E-02
    5    6    0.48137408E-02  0.13845135E-01
    6    6    0.14318681E-01 -0.18646319E-01
    7    6   -0.10982480E-01  0.16331729E-02
    8    6   -0.77203465E-02  0.95480333E-02
    9    6    0.95590588E-02  0.16441176E-01
   10    6   -0.14525158E-01 -0.36280658E-01
   11    6    0.25427558E-03  0.75758212E-02
   12    6    0.57870935E-01 -0.13172370E-01
    1    7    0.13757962E-01  0.19972009E-02
    2    7    0.41174776E-02 -0.46980870E-02
    3    7    0.15686203E-01  0.16822477E-01
    4    7    0.15694496E-02  0.12413364E-02
    5    7   -0.57931005E-02  0.86595478E-02
    6    7    0.15002449E-01 -0.53149893E-02
    7    7    0.24362500E-02 -0.41416218E-02
    8    7   -0.12290047E-02  0.22135076E-02
    9    7    0.81004575E-02 -0.13197364E-01
   10    7    0.36877659E-02  0.27549976E-01
   11    7    0.23132504E-01 -0.20162812E-01
   12    7    0.36587069E-02 -0.81153243E-02
    1    8   -0.47659290E-02  0.12826021E-02
    2    8    0.85789376E-02  0.73719203E-02
    3    8    0.21481640E-01  0.23455316E-01
    4    8   -0.41953820E-02  0.35162446E-02
    5    8    0.15170335E-01  0.18522833E-02
    6    8    0.75624387E-02  0.51892480E-02
    7    8    0.13800319E-02  0.15348916E-02
    8    8   -0.71350515E-03 -0.62823936E-02
    9    8   -0.14558515E-02 -0.89006397E-02
   10    8    0.10351979E-01  0.84425068E-02
   11    8   -0.35798599E-02 -0.19748914E-01
   12    8    0.61417051E-02 -0.22038282E-01
    1    9    0.56848914E-02  0.18690135E-01
    2    9   -0.32685309E-02  0.51669585E-02
    3    9    0.11951591E-01 -0.93319282E-02
    4    9    0.32276386E-02  0.70954575E-02
    5    9    0.12982005E-01  0.82383516E-02
    6    9   -0.20149177E-01  0.62122775E-02
    7    9    0.16857479E-02  0.16640390E-02
    8    9   -0.63267798E-02 -0.52964372E-02
    9    9    0.87897192E-02 -0.29037749E-02
   10    9   -0.11957462E-01 -0.56452925E-02
   11    9    0.15583984E-01  0.64765965E-02
   12    9    0.32895911E-02 -0.11447299E-01
    1   10   -0.11737315E-01 -0.64043785E-02
    2   10    0.18132811E-01 -0.12481087E-01
    3   10   -0.76968553E-02  0.10502389E-01
    4   10   -0.10194607E-01 -0.98278452E-03
    5   10    0.12563387E-01 -0.37235090E-02
    6   10   -0.82211044E-02 -0.36767432E-04
    7   10   -0.15451103E-01 -0.73002792E-02
    8   10   -0.78938560E-02  0.10475978E-01
    9   10    0.16396267E-02 -0.64811170E-02
   10   10    0.99794525E-02 -0.14944292E-02
   11   10    0.11449750E-01  0.23921772E-01
   12   10   -0.29880144E-01  0.53923959E-02
    1   11   -0.24800484E-02  0.20548590E-01
    2   11    0.64060586E-02 -0.95060024E-02
    3   11   -0.19956189E-01  0.20203726E-01
    4   11   -0.16894683E-02  0.35111682E-02
    5   11   -0.24423230E-02 -0.19673754E-01
    6   11   -0.51724543E-02  0.12772146E-01
    7   11   -0.12482942E-01 -0.27995895E-01
    8   11   -0.37734863E-02 -0.23445724E-01
    9   11   -0.15431345E-01 -0.12071539E-01
   10   11    0.16035198E-01  0.22625980E-01
   11   11   -0.43227023E-02  0.16563455E-01
   12   11    0.96800569E-02  0.20289826E-01
    1   12    0.19911663E-01  0.88892321E-02
    2   12   -0.48221278E-03 -0.66310034E-03
    3   12    0.79498006E-02  0.40131467E-02
    4   12    0.33598255E-03  0.84325759E-02
    5   12   -0.52906345E-02  0.72215902E-02
    6   12    0.16890285E-01 -0.74435592E-02
    7   12   -0.12504648E-01  0.87937765E-02
    8   12   -0.21348405E-01  0.60140623E-03
    9   12   -0.53475242E-03  0.54561476E-02
   10   12    0.16153575E-01  0.15068606E-02
   11   12   -0.54242050E-02  0.82316302E-02
   12   12    0.15674607E-01  0.20133218E-01

   -6    0    0
    1    1    0.13327531E-01  0.18702009E-07
    2    1    0.11885795E-01 -0.24840992E-01
    3    1    0.17472322E-01  0.55153591E-02
    4    1   -0.11986511E-01  0.14455836E-02
    5    1   -0.21882695E-01 -0.13878102E-01
    6    1   -0.47085695E-01  0.15033572E-01
    7    1   -0.15769804E-01 -0.82299916E-02
    8    1    0.11481854E-02 -0.34619826E-03
    9    1   -0.24670470E-02  0.21437629E-01
   10    1    0.30778805E-02 -0.46239649E-02
   11    1    0.41936398E-02  0.46546131E-02
   12    1   -0.35497902E-02  0.67429661E-02
    1    2    0.11885776E-01  0.24840984E-01
    2    2   -0.47824257E-01  0.26228202E-07
    3    2    0.15149541E-01 -0.52853210E-02
    4    2    0.35860698E-02 -0.21871484E-02
    5    2   -0.50220588E-02 -0.68164111E-02
    6    2    0.81525375E-02  0.15636235E-01
    7    2    0.79989834E-02 -0.20771508E-01
    8    2    0.52310638E-02 -0.16790472E-01
    9    2   -0.13953821E-01 -0.12012519E-02
   10    2   -0.92612005E-03  0.14973154E-02
   11    2    0.10373102E-01 -0.26913805E-01
   12    2    0.25286731E-01  0.57399868E-02
    1    3    0.17472381E-01 -0.55153329E-02
    2    3    0.15149526E-01  0.52853450E-02
    3    3    0.23608062E-01  0.17730411E-07
    4    3    0.13551659E-01  0.25269929E-02
    5    3    0.20580891E-01 -0.96698393E-02
    6    3   -0.49433661E-02  0.23143427E-01
    7    3   -0.54672604E-02 -0.21862351E-02
    8    3    0.95293034E-02  0.11903019E-01
    9    3    0.81391153E-02 -0.65043734E-02
   10    3   -0.11307920E-01  0.12140041E-01
   11    3    0.55986788E-02  0.51278353E-02
   12    3   -0.14771006E-01  0.36762764E-02
    1    4   -0.11986501E-01 -0.14455720E-02
    2    4    0.35860721E-02  0.21871443E-02
    3    4    0.13551621E-01 -0.25269925E-02
    4    4   -0.99838203E-03 -0.15163287E-08
    5    4   -0.57363965E-03  0.23413593E-03
    6    4   -0.78281299E-03  0.63920730E-02
    7    4    0.31559834E-02  0.11610845E-02
    8    4    0.11001579E-02  0.46503731E-03
    9    4    0.19233809E-02  0.14128768E-01
   10    4    0.36194387E-02  0.22284059E-02
   11    4   -0.13079352E-01  0.17841858E-02
   12    4   -0.31706265E-02 -0.76681681E-03
    1    5   -0.21882687E-01  0.13878112E-01
    2    5   -0.50220603E-02  0.68164051E-02
    3    5    0.20580899E-01  0.96697846E-02
    4    5   -0.57363936E-03 -0.23412247E-03
    5    5    0.11375922E-01  0.30658527E-08
    6    5   -0.12502580E-01 -0.39440288E-02
    7    5   -0.40732889E-02 -0.21850396E-02
    8    5    0.12346544E-01 -0.26390791E-02
    9    5    0.30041340E-02  0.56182286E-03
   10    5   -0.24166597E-01 -0.79994105E-02
   11    5    0.19866410E-01 -0.84177943E-02
   12    5    0.14693040E-01 -0.10419613E-01
    1    6   -0.47085648E-01 -0.15033550E-01
    2    6    0.81525653E-02 -0.15636182E-01
    3    6   -0.49433691E-02 -0.23143447E-01
    4    6   -0.78280655E-03 -0.63920755E-02
    5    6   -0.12502559E-01  0.39440533E-02
    6    6    0.10766387E-01 -0.12634074E-07
    7    6    0.10155137E-01  0.37220534E-02
    8    6    0.18003737E-01  0.14428269E-01
    9    6    0.21936928E-01  0.17460647E-03
   10    6   -0.16775468E-01  0.28285608E-01
   11    6    0.13891156E-01 -0.39458988E-02
   12    6   -0.53462927E-01  0.56246197E-02
    1    7   -0.15769755E-01  0.82299502E-02
    2    7    0.79989813E-02  0.20771462E-01
    3    7   -0.54672900E-02  0.21861760E-02
    4    7    0.31560111E-02 -0.11610828E-02
    5    7   -0.40733081E-02  0.21850510E-02
    6    7    0.10155105E-01 -0.37221463E-02
    7    7    0.13702400E-01  0.26405588E-08
    8    7    0.38794544E-02  0.18917198E-02
    9    7   -0.60216103E-02  0.51404843E-02
   10    7    0.10949727E-01 -0.21116840E-01
   11    7   -0.95318237E-02  0.20289367E-01
   12    7    0.46359314E-02  0.59113373E-02
    1    8    0.11482152E-02  0.34614137E-03
    2    8    0.52310387E-02  0.16790464E-01
    3    8    0.95292651E-02 -0.11903031E-01
    4    8    0.11001737E-02 -0.46504330E-03
    5    8    0.12346526E-01  0.26390737E-02
    6    8    0.18003763E-01 -0.14428336E-01
    7    8    0.38794406E-02 -0.18917113E-02
    8    8   -0.27228441E-02  0.12694899E-08
    9    8    0.16840076E-02 -0.28311617E-02
   10    8    0.84292947E-02 -0.72642844E-02
   11    8   -0.29540450E-01  0.36395688E-01
   12    8    0.62836348E-02 -0.68752668E-02
    1    9   -0.24670384E-02 -0.21437639E-01
    2    9   -0.13953820E-01  0.12012682E-02
    3    9    0.81390988E-02  0.65043563E-02
    4    9    0.19233837E-02 -0.14128779E-01
    5    9    0.30041393E-02 -0.56181472E-03
    6    9    0.21936925E-01 -0.17463251E-03
    7    9   -0.60216105E-02 -0.51404876E-02
    8    9    0.16840103E-02  0.28311646E-02
    9    9   -0.10163302E-01 -0.20136503E-08
   10    9   -0.82657158E-02 -0.71090600E-02
   11    9   -0.73916093E-02 -0.89514790E-02
   12    9   -0.37539671E-02 -0.43311548E-02
    1   10    0.30778783E-02  0.46239547E-02
    2   10   -0.92612908E-03 -0.14973324E-02
    3   10   -0.11307906E-01 -0.12140038E-01
    4   10    0.36194443E-02 -0.22283975E-02
    5   10   -0.24166592E-01  0.79993975E-02
    6   10   -0.16775460E-01 -0.28285599E-01
    7   10    0.10949728E-01  0.21116844E-01
    8   10    0.84293002E-02  0.72642856E-02
    9   10   -0.82657263E-02  0.71090709E-02
   10   10   -0.79812197E-02 -0.98349258E-09
   11   10   -0.18635915E-01 -0.95272420E-03
   12   10    0.10351324E-01  0.12419385E-02
    1   11    0.41936471E-02 -0.46545868E-02
    2   11    0.10372990E-01  0.26913837E-01
    3   11    0.55987114E-02 -0.51278148E-02
    4   11   -0.13079352E-01 -0.17841358E-02
    5   11    0.19866546E-01  0.84177589E-02
    6   11    0.13891172E-01  0.39458489E-02
    7   11   -0.95316491E-02 -0.20289243E-01
    8   11   -0.29540401E-01 -0.36395595E-01
    9   11   -0.73915974E-02  0.89514829E-02
   10   11   -0.18635909E-01  0.95274107E-03
   11   11    0.82306873E-02 -0.32971735E-07
   12   11    0.81691750E-02 -0.58630406E-02
    1   12   -0.35497678E-02 -0.67429724E-02
    2   12    0.25286709E-01 -0.57399725E-02
    3   12   -0.14770986E-01 -0.36762998E-02
    4   12   -0.31706099E-02  0.76681225E-03
    5   12    0.14693051E-01  0.10419611E-01
    6   12   -0.53462911E-01 -0.56246355E-02
    7   12    0.46359179E-02 -0.59113381E-02
    8   12    0.62836387E-02  0.68752860E-02
    9   12   -0.37539661E-02  0.43311463E-02
   10   12    0.10351312E-01 -0.12419580E-02
   11   12    0.81691601E-02  0.58630211E-02
   12   12   -0.61383372E-02 -0.19231425E-07

   -5   -6    0
    1    1   -0.14796163E-01 -0.79220166E-01
    2    1    0.15384335E-01  0.54863526E-02
    3    1    0.27766590E-01 -0.65802476E-01
    4    1    0.13072682E-01 -0.29936601E-02
    5    1   -0.23627650E-01  0.41717534E-03
    6    1    0.73569841E-01 -0.54934637E-01
    7    1    0.34725390E-01  0.22694260E-01
    8    1   -0.21527806E-01  0.15550121E-02
    9    1    0.41941731E-01  0.10508193E-01
   10    1   -0.18051007E-01  0.29963460E-01
   11    1    0.10769822E-01  0.17622517E-01
   12    1   -0.13337353E-01  0.26708220E-02
    1    2    0.41033320E-01 -0.84305163E-02
    2    2    0.14894846E-01  0.47459446E-01
    3    2    0.12965408E-01 -0.23360968E-01
    4    2    0.17060172E-01 -0.10297809E-01
    5    2   -0.22693371E-01 -0.52046583E-02
    6    2    0.17974607E-01 -0.75946507E-01
    7    2   -0.12637741E-01  0.23639196E-01
    8    2    0.22158994E-02  0.18190943E-01
    9    2   -0.19294713E-05 -0.75369895E-02
[...]
   10    9   -0.83881286E-02 -0.15077007E-01 -0.24343269E-02  0.14541396E-01 -0.14247690E-01  0.14955481E-01
   11    9   -0.11021245E-01  0.11239003E-01  0.12406058E-01  0.11458684E-01 -0.27335331E-02 -0.78772313E-02
   12    9    0.38212033E-02  0.24789772E-02  0.74818124E-02 -0.31525351E-02  0.24976333E-02  0.34975540E-02
    1   10    0.11803244E-02  0.74477973E-02  0.77025162E-02 -0.16360134E-01 -0.10563385E-01 -0.23619514E-02
    2   10    0.53847045E-03  0.66819387E-02  0.92990561E-03 -0.10638175E-01 -0.20981044E-02  0.60846424E-02
    3   10    0.13701135E-01 -0.57127015E-02 -0.70233755E-02 -0.15698071E-02  0.24124030E-02  0.13402423E-01
    4   10   -0.22277106E-02  0.24940709E-02 -0.56292204E-03 -0.50583808E-02 -0.28256424E-02  0.68885980E-02
    5   10   -0.10725861E-01 -0.12351329E-01 -0.11103803E-01  0.57986352E-02 -0.70307594E-02 -0.55353582E-02
    6   10    0.37718970E-02 -0.51718971E-02 -0.38145438E-02 -0.10784610E-01  0.97720692E-02  0.44404708E-02
    7   10   -0.32021164E-03 -0.12430622E-02  0.42330617E-03  0.72746328E-03 -0.10460035E-02 -0.19414841E-02
    8   10    0.44441448E-03 -0.58000111E-03 -0.14592424E-02 -0.24396872E-02  0.26074254E-02  0.10667876E-02
    9   10    0.64377034E-02  0.14854805E-01  0.12382279E-01  0.20278448E-01  0.75733635E-02 -0.28796829E-01
   10   10   -0.10901151E-02  0.25211779E-02  0.97157871E-02 -0.33059058E-02  0.34265236E-01 -0.91702667E-02
   11   10    0.56266725E-02  0.11288712E-01 -0.48902574E-02  0.30781769E-02 -0.10585361E-01  0.42151830E-02
   12   10   -0.16094618E-02 -0.96999795E-02 -0.81806428E-03  0.96275085E-02  0.18220086E-01  0.12081997E-01
    1   11   -0.26270460E-02  0.19106209E-02  0.27580146E-02 -0.15183185E-01 -0.90140067E-02 -0.54538424E-02
    2   11    0.81559264E-02 -0.11940464E-01  0.12090844E-01 -0.44123969E-02 -0.19187829E-02 -0.21070619E-02
    3   11    0.18845782E-01 -0.94007531E-02  0.90557448E-02 -0.11895706E-01 -0.28082672E-02  0.61506639E-02
    4   11    0.28394557E-03  0.31876378E-02  0.43102321E-02 -0.87281204E-03 -0.14224432E-02 -0.16772656E-02
    5   11    0.41698635E-02  0.13070875E-01 -0.15091103E-01  0.89842363E-02  0.14639114E-02  0.53334799E-02
    6   11    0.11300759E-02 -0.14903990E-01  0.10545627E-01 -0.25357884E-01  0.78217380E-03  0.26037891E-04
    7   11    0.17353358E-02 -0.79264977E-04 -0.42418353E-02  0.74431283E-02 -0.54375660E-02  0.35964711E-02
    8   11   -0.23482863E-02 -0.77009532E-02  0.29384983E-02 -0.66498693E-03  0.30335085E-02 -0.56335160E-02
    9   11    0.76129074E-02 -0.10108299E-01 -0.52073256E-02 -0.29116239E-02 -0.15963639E-01 -0.84703912E-02
   10   11   -0.13736559E-01 -0.21377812E-02 -0.92336276E-02  0.72572940E-03  0.21265539E-02 -0.36714248E-02
   11   11   -0.16398797E-02  0.14019911E-01 -0.75970937E-02 -0.69196652E-02 -0.25495029E-02  0.69703330E-01
   12   11   -0.33478372E-02  0.15268935E-01  0.22374292E-01 -0.44892813E-02  0.10309766E-02  0.33170218E-02
    1   12   -0.44428772E-03  0.57590021E-02 -0.84428827E-02 -0.20758999E-01  0.52136324E-02  0.47594008E-02
    2   12    0.35114896E-02 -0.73693883E-02  0.12808592E-01 -0.15894623E-01 -0.75738655E-03  0.14895930E-02
    3   12   -0.71462019E-02  0.21426469E-01  0.14470025E-02  0.89916469E-02  0.18023089E-02 -0.35112493E-02
    4   12   -0.80251158E-03  0.98353292E-03 -0.37976157E-03 -0.28279212E-03  0.19239018E-02  0.25141207E-02
    5   12    0.56852445E-02  0.98028479E-02 -0.15102527E-01 -0.91443795E-02  0.88900668E-02 -0.11707942E-01
    6   12    0.10601109E-04 -0.19838174E-02 -0.44830576E-02 -0.56955096E-02  0.75756519E-03 -0.35415299E-02
    7   12    0.15772059E-02  0.11012343E-02 -0.75522913E-02  0.17593720E-02  0.19395386E-02  0.38500462E-02
    8   12    0.95901417E-04  0.29048135E-03 -0.15774484E-02  0.51871829E-02  0.95253933E-03 -0.41996575E-03
    9   12   -0.16355910E-01 -0.23651179E-01  0.67894935E-02  0.20366950E-02  0.17126275E-01  0.95982916E-02
   10   12   -0.12186638E-01 -0.17976486E-01 -0.20872012E-01  0.33712328E-01  0.51183843E-02  0.50658520E-02
   11   12   -0.29734456E-01  0.96785543E-02  0.21832253E-01  0.24587434E-01  0.11341668E-01  0.19372882E-01
   12   12   -0.29477186E-02 -0.13029361E-01  0.14580880E-02  0.82485645E-02  0.23195705E-01 -0.12845501E-01

    8    4    0
    1    1    0.13657682E-02  0.93283789E-03 -0.66792722E-03 -0.61083785E-02 -0.63708299E-01 -0.45272108E-02
    2    1   -0.19834335E-02 -0.10614428E-02  0.78779185E-02  0.10696196E-02 -0.31625495E-02  0.52777838E-03
    3    1   -0.21302086E-02  0.90133539E-02  0.60402438E-02 -0.67334880E-02  0.22044489E-02 -0.19329075E-04
    4    1    0.10430676E-02 -0.15883603E-02 -0.61882929E-03 -0.11842168E-02  0.10335850E-02 -0.85677249E-03
    5    1   -0.96785617E-02  0.84112367E-02  0.16514124E-01  0.31884930E-01  0.39703617E-02 -0.70662698E-02
    6    1   -0.34319776E-02 -0.37592422E-02  0.30307220E-03 -0.82200052E-02  0.43608713E-02  0.45241548E-02
    7    1    0.45219470E-02 -0.67601813E-03 -0.22006896E-02 -0.55857987E-03  0.15390004E-02  0.91753455E-03
    8    1   -0.37019352E-02  0.16050796E-02  0.39185385E-02  0.35657725E-03  0.61480142E-03 -0.86957178E-03
    9    1   -0.21993309E-01  0.13618960E-01  0.60147352E-02  0.11651621E-01 -0.37250472E-02 -0.11857001E-01
   10    1    0.19473987E-02 -0.26975294E-01 -0.26475387E-01  0.17541498E-02  0.27668761E-03  0.58896597E-02
   11    1    0.40683031E-02 -0.97479825E-02 -0.10196750E-01 -0.13982680E-01  0.44478373E-02  0.25304683E-02
   12    1    0.35697509E-02 -0.12347307E-01 -0.19240987E-01  0.34663285E-02 -0.36080128E-02 -0.17707739E-02
    1    2   -0.44906743E-02  0.30417427E-02 -0.69185774E-04 -0.11598698E-02 -0.18820643E-02 -0.25508080E-02
    2    2    0.96035393E-04 -0.20324594E-02 -0.10047176E-02 -0.30044396E-02 -0.29835194E-01 -0.35989326E-01
    3    2   -0.13135756E-01 -0.16320002E-01 -0.92579659E-02  0.25693853E-01  0.24987647E-03 -0.54476959E-02
    4    2   -0.10338473E-02 -0.19394311E-02  0.63184460E-03 -0.22094602E-03  0.14813683E-02  0.53263050E-03
    5    2    0.46863167E-02  0.11067415E-04  0.54025396E-02  0.92030873E-02  0.40717209E-02  0.30421041E-02
    6    2   -0.63879793E-04 -0.76792127E-03  0.16235171E-01  0.12681946E-01  0.22194009E-02  0.20087758E-02
    7    2    0.39471940E-02  0.17592609E-02  0.20116084E-01 -0.21208137E-02  0.91532650E-03  0.11797045E-02
    8    2    0.37770900E-02 -0.20803946E-02  0.43228751E-02  0.91304481E-03  0.65914356E-03 -0.13356435E-02
    9    2   -0.11902982E-02 -0.24522065E-02  0.10928722E-01 -0.78246397E-02  0.75615758E-03  0.99107301E-03
   10    2   -0.90820714E-02  0.76211756E-02 -0.13334358E-01 -0.65337851E-02 -0.93685522E-02 -0.10571467E-01
   11    2    0.18345370E-02  0.94707402E-03 -0.18989596E-01 -0.15617861E-01 -0.55876813E-04  0.15762392E-02
   12    2    0.11005454E-01 -0.70469412E-02  0.82790521E-02 -0.13926783E-01  0.50309688E-02  0.15129717E-02
    1    3   -0.67430059E-02 -0.25193770E-02 -0.21238936E-02  0.11076922E-01 -0.91853152E-03 -0.82327696E-03
    2    3    0.39054654E-02  0.98915915E-02 -0.92503606E-02 -0.10411930E-01 -0.65925896E-02  0.69905119E-02
    3    3    0.96496245E-02 -0.83399212E-02 -0.45860380E-02 -0.23618001E-01  0.69826408E-02 -0.52567628E-01
    4    3    0.67565085E-02  0.24704569E-02 -0.16874328E-02  0.84491976E-03  0.14051256E-02  0.56909441E-02
    5    3   -0.14205119E-01  0.18091908E-01 -0.23197897E-01  0.16789255E-02 -0.14432812E-02  0.15806616E-01
    6    3    0.27054912E-02  0.66010860E-02  0.23801486E-01 -0.10175497E-01 -0.51773617E-02  0.85115056E-02
    7    3   -0.27976037E-02 -0.89739831E-02 -0.73406125E-03  0.22999579E-02  0.24879433E-02  0.18363562E-02
    8    3    0.97990826E-03 -0.89178631E-02 -0.77114873E-02 -0.19281266E-03 -0.45072445E-03  0.34331962E-03
    9    3    0.10299096E-01  0.36251721E-02  0.11385319E-02 -0.16450693E-01  0.60045391E-02 -0.21863880E-02
   10    3    0.19386211E-01 -0.24213009E-01 -0.11100794E-01 -0.20911000E-02 -0.11303048E-01 -0.27208756E-01
   11    3   -0.66186249E-02  0.63479144E-02 -0.88386309E-02 -0.12265665E-01 -0.13862851E-02  0.47639516E-03
   12    3   -0.48862247E-02  0.21719574E-01 -0.13113908E-01 -0.66625306E-02  0.11235409E-01 -0.33807903E-02
    1    4    0.12726952E-02 -0.21277807E-03  0.16081907E-02  0.22691002E-02  0.34357824E-03 -0.35153989E-03
    2    4    0.14858807E-02 -0.18681300E-03 -0.30841121E-02 -0.60566417E-03 -0.54095519E-03  0.91926576E-03
    3    4   -0.16853049E-02 -0.15327000E-02  0.24628700E-02 -0.27722703E-02 -0.32269302E-02 -0.11064381E-02
    4    4   -0.12750255E-03  0.47369059E-04 -0.17191711E-03 -0.69321018E-04 -0.62670869E-03  0.65547824E-03
    5    4   -0.47934302E-03 -0.49045522E-03 -0.23333673E-02  0.31539219E-02  0.15712720E-02 -0.12004536E-02
    6    4    0.97677479E-04 -0.10394293E-02 -0.96701663E-03  0.33323135E-03  0.79745408E-03  0.43106821E-03
    7    4   -0.85055223E-03 -0.80296204E-03  0.31481754E-03 -0.47256221E-04 -0.89750606E-03  0.45166565E-03
    8    4   -0.19471734E-02 -0.32780104E-04  0.37956945E-03  0.97731900E-03  0.46988497E-03 -0.25000381E-04
    9    4   -0.21264507E-02 -0.53550169E-03 -0.12915002E-02  0.15760466E-02  0.52220989E-03 -0.10712946E-02
   10    4   -0.75086964E-03  0.27833019E-02 -0.68546311E-03  0.55936037E-03 -0.42326325E-02  0.28128810E-02
   11    4   -0.40125960E-03  0.18443298E-03  0.11895676E-02 -0.26094282E-02 -0.23133139E-03 -0.35233948E-03
   12    4   -0.11256255E-02 -0.39059048E-03 -0.95581159E-03  0.22777478E-02  0.10452910E-02  0.11683287E-03
    1    5   -0.14837800E-01 -0.34658583E-03  0.12269348E-01 -0.10968465E-01 -0.10871795E-02  0.29494637E-02
    2    5    0.84004987E-02  0.40421618E-02  0.32667558E-02 -0.16445999E-01 -0.96732852E-03  0.74958867E-02
    3    5    0.13067412E-01 -0.23662995E-01 -0.16408875E-01 -0.10579219E-01  0.20213229E-02  0.91105645E-02
    4    5    0.10788544E-02  0.43975282E-02  0.27988897E-02 -0.40182143E-02 -0.20713856E-03  0.19858345E-02
    5    5   -0.19050657E-02  0.34174652E-02 -0.56240576E-02  0.29300980E-02  0.51571290E-01  0.15622211E+00
    6    5    0.22055999E-01  0.51847396E-02 -0.22226600E-01 -0.19721934E-01  0.22177148E-03  0.29736804E-02
    7    5    0.33383961E-03 -0.11994325E-01 -0.38904078E-02  0.35372185E-02 -0.15167080E-02 -0.23597802E-02
    8    5   -0.49846982E-02 -0.10755041E-04 -0.75412065E-02  0.11100372E-01  0.81504418E-03 -0.21478890E-02
    9    5    0.10351672E-01  0.15515410E-01  0.53458820E-03  0.15205616E-01  0.48051195E-03 -0.86616527E-02
   10    5    0.41570263E-02 -0.33893158E-02  0.16788264E-01  0.37072482E-02  0.63774630E-02 -0.10619733E-01
   11    5   -0.97332207E-02 -0.11872240E-01 -0.10817842E-02  0.16006220E-01 -0.57964120E-02 -0.11156622E-02
   12    5   -0.13615536E-01  0.15057847E-01 -0.50348615E-02 -0.18012632E-01  0.64948524E-02  0.54769882E-02
    1    6   -0.10862724E-01 -0.28800046E-02 -0.24758369E-02  0.98466885E-02  0.97926644E-04 -0.22732831E-02
    2    6    0.89123379E-02  0.21842454E-02  0.26680325E-02 -0.56410276E-02 -0.64219100E-02  0.22629877E-02
    3    6    0.67324394E-02 -0.17733395E-01  0.15645456E-01  0.25749896E-01 -0.86725859E-03  0.53341962E-02
    4    6   -0.10199638E-02 -0.27414085E-02  0.69575625E-03  0.15578280E-02 -0.15829632E-02 -0.22974364E-03
    5    6    0.10037809E-01 -0.16676753E-01 -0.21142786E-02 -0.65083693E-02  0.15886273E-02  0.15547345E-02
    6    6   -0.12033895E-02  0.99363650E-03 -0.28338023E-03 -0.17735495E-02  0.58810487E-02 -0.53725788E-02
    7    6   -0.10341735E-02  0.29028182E-02  0.19672614E-02  0.67804275E-02  0.31513709E-02  0.70637079E-03
    8    6    0.49909556E-02  0.53339425E-02 -0.31445956E-02  0.20001399E-02  0.18415401E-02 -0.50559171E-04
    9    6   -0.33888635E-02 -0.95889367E-02 -0.10286030E-01  0.24923234E-03  0.11671788E-01  0.71346503E-02
   10    6   -0.85074268E-02  0.27267780E-01 -0.99571412E-02 -0.13212801E-01  0.15738573E-02  0.89293780E-02
   11    6   -0.89593418E-03 -0.14862324E-01 -0.10354171E-01  0.86196170E-02 -0.11120029E-02 -0.12039845E-01
   12    6    0.33784455E-02  0.19964099E-02 -0.32959194E-02 -0.88709056E-02 -0.66931997E-02 -0.70701235E-02
    1    7    0.49573112E-03  0.11884222E-02 -0.37187866E-02 -0.89059905E-03  0.61960994E-03  0.18359001E-02
    2    7   -0.26843879E-03  0.84282084E-02  0.10099117E-01 -0.16924640E-01  0.25212899E-02  0.13031447E-02
    3    7    0.13965010E-01  0.58764383E-02 -0.78746136E-02  0.17901884E-02  0.35318389E-03 -0.22279520E-02
    4    7   -0.37234993E-03  0.11926875E-02 -0.73121801E-03 -0.59150176E-03  0.18355589E-03  0.56884061E-04
    5    7   -0.43315947E-02  0.11125281E-01 -0.53105334E-02  0.23296711E-02 -0.32617862E-02  0.15057454E-03
    6    7    0.49575447E-02 -0.36535612E-02 -0.29728375E-02 -0.25498978E-02 -0.43839188E-03 -0.13143717E-02
    7    7    0.13001804E-02 -0.20196979E-02 -0.23261437E-03 -0.14390164E-02  0.31132337E-02  0.20509138E-02
    8    7    0.77499063E-03 -0.13658182E-02 -0.11120746E-02  0.84790163E-04 -0.13400277E-02 -0.78836128E-04
    9    7   -0.51634422E-03  0.16213631E-02  0.21606069E-03 -0.19695802E-02 -0.85430733E-02 -0.59870814E-02
   10    7    0.28794214E-02 -0.87412032E-02  0.80835798E-02 -0.52163659E-03  0.54008703E-03 -0.70426548E-03
   11    7   -0.23234311E-01  0.84917590E-02  0.20055754E-01 -0.38727464E-02 -0.38952633E-02  0.43337642E-02
   12    7   -0.23658379E-02 -0.39527245E-02  0.51445361E-02  0.22477425E-02  0.26820850E-02  0.16312050E-02
    1    8    0.13802081E-04 -0.86183668E-02  0.30345080E-02  0.25522893E-02 -0.11454251E-03 -0.82262247E-03
    2    8   -0.28663001E-02  0.32760456E-02  0.59208986E-02  0.10321468E-02 -0.36306734E-03 -0.13554838E-03
    3    8    0.83403183E-03  0.22268302E-01 -0.90098514E-03 -0.82726277E-02 -0.24725898E-03  0.15729027E-02
    4    8   -0.16222642E-02 -0.68077787E-03 -0.55728218E-08  0.48886702E-03 -0.85156520E-03  0.15477306E-03
    5    8   -0.48218361E-02 -0.14168535E-02  0.51868121E-02 -0.91640476E-02  0.12045207E-02 -0.30949189E-03
    6    8    0.37474212E-02  0.44392804E-02  0.20075519E-02 -0.67258475E-02 -0.15585917E-02  0.85870232E-03
    7    8   -0.10961443E-02  0.11377751E-02 -0.14648178E-02  0.37427342E-02  0.11359635E-02 -0.44974347E-03
    8    8    0.21024269E-03  0.71416257E-03 -0.40516164E-03 -0.18780327E-02 -0.18765710E-02  0.10470394E-02
    9    8    0.15297794E-02 -0.12561992E-02 -0.52589700E-02  0.16259393E-02 -0.59980673E-04  0.19163704E-02
   10    8   -0.87066985E-02  0.55249721E-03  0.23091344E-02  0.36463488E-02  0.19448993E-02  0.34788826E-02
   11    8   -0.79182329E-02 -0.11671722E-01 -0.42487632E-02  0.62716853E-02 -0.66963428E-03  0.93432194E-03
   12    8   -0.11714914E-02 -0.84238534E-02 -0.73459703E-04  0.24291344E-02 -0.24020561E-02 -0.69483173E-05
    1    9   -0.17429508E-01 -0.95198867E-03  0.16602869E-01  0.31258400E-02  0.94483556E-03 -0.55619724E-02
    2    9    0.54273970E-02 -0.17422205E-03 -0.51955586E-02 -0.34663267E-02 -0.29867787E-03 -0.31301513E-03
    3    9    0.15274746E-01 -0.11630362E-03  0.62758123E-02 -0.16194966E-03 -0.51386328E-02  0.70236808E-02
    4    9    0.69131411E-04 -0.19682581E-02 -0.10486800E-02  0.20311401E-02 -0.13257903E-04 -0.32279049E-02
    5    9   -0.60176688E-02 -0.10114771E-01  0.46223909E-02  0.23002412E-01 -0.57509902E-02  0.40318448E-02
    6    9    0.90158103E-02 -0.83011144E-02 -0.31835950E-02  0.38182239E-02  0.18294158E-02 -0.24865418E-02
    7    9   -0.19065411E-02  0.17730431E-03  0.44659419E-02  0.18564966E-02 -0.34177106E-02  0.87652118E-04
    8    9   -0.38672757E-03  0.20140124E-02  0.22010625E-02  0.76664384E-02  0.56136937E-02 -0.35162870E-02
    9    9    0.52874755E-02 -0.49257428E-02  0.11381722E-01  0.48035274E-02 -0.77123116E-01  0.25541670E-02
   10    9   -0.60831466E-01 -0.35834824E-01 -0.38157876E-03  0.35158823E-01 -0.19023917E-01  0.19140421E-01
   11    9   -0.23562511E-01 -0.21961804E-01  0.20109122E-01  0.17654359E-01 -0.30490250E-02 -0.64647728E-02
   12    9   -0.23785055E-01  0.16636454E-02  0.56719388E-03 -0.29324347E-03 -0.66938420E-03  0.11460995E-01
    1   10   -0.61075652E-02  0.25268569E-01 -0.89546731E-02  0.70333269E-03  0.15048446E-03 -0.13149787E-02
    2   10    0.88419291E-03  0.16440733E-02 -0.61321248E-02  0.83483195E-02 -0.99380713E-03  0.57225105E-02
    3   10   -0.40966070E-02  0.94552673E-02  0.17982228E-02 -0.23993467E-02  0.44548736E-02  0.20506311E-02
    4   10    0.13672613E-03  0.17634231E-02  0.83701602E-03 -0.59064984E-03  0.13188041E-02  0.35004264E-03
    5   10    0.59256637E-02  0.28418047E-02  0.77758136E-03 -0.65372478E-03  0.10879497E-01  0.94200652E-02
    6   10    0.78254982E-02 -0.10772467E-01  0.26774818E-02  0.13295827E-01 -0.37410310E-02  0.39933573E-02
    7   10   -0.33422771E-02  0.12468446E-01  0.46578420E-02 -0.69936153E-02  0.21113890E-02  0.13700145E-02
    8   10    0.77044813E-03  0.19159413E-02  0.25337071E-02 -0.15735660E-02  0.11244566E-02  0.16852506E-03
    9   10    0.43204060E-01 -0.31391920E-01 -0.19365632E-01  0.11440450E-01 -0.17016468E-02  0.16795984E-02
   10   10    0.10577410E-02 -0.11260986E-02  0.32457736E-02 -0.22801592E-02  0.60955253E-01  0.40791203E-02
   11   10   -0.19436440E-01  0.76956182E-02  0.90375579E-02 -0.16070042E-01  0.10510995E-01 -0.35491135E-02
   12   10   -0.53974959E-02  0.43191362E-02 -0.54437538E-02  0.65064145E-02  0.17959881E-01 -0.57460012E-02
    1   11   -0.50959892E-03 -0.87444008E-02  0.57151455E-02  0.17261284E-01  0.72970923E-03 -0.65591244E-02
    2   11   -0.95490170E-03 -0.51656253E-02  0.36714610E-02  0.24475796E-01 -0.33858203E-02 -0.26346999E-02
    3   11    0.17817230E-01  0.20975272E-01  0.13473834E-01  0.12746635E-01 -0.92447754E-02  0.34716722E-02
    4   11   -0.63564040E-02  0.27075187E-02 -0.33970526E-02  0.25366439E-02  0.57362641E-02 -0.13168838E-02
    5   11    0.77955941E-02  0.58799078E-02 -0.50846846E-03 -0.24006663E-02 -0.39330640E-02  0.58238672E-02
    6   11   -0.40995866E-02  0.43707953E-02 -0.74789288E-02 -0.17011252E-01 -0.35796237E-04 -0.45391946E-02
    7   11    0.31775201E-03  0.16501938E-02  0.82651405E-02 -0.68260071E-02 -0.22703215E-03 -0.13708662E-02
    8   11   -0.35777837E-02 -0.22013140E-02  0.12616428E-02  0.19605951E-03  0.12014033E-02  0.17152071E-02
    9   11    0.54776401E-02  0.94992564E-02 -0.24390470E-02 -0.41982190E-02 -0.93503393E-02 -0.21854757E-02
   10   11    0.17508971E-02 -0.19807358E-01  0.14090632E-01 -0.45521795E-02  0.59870472E-02 -0.99789188E-02
   11   11   -0.12303286E-01 -0.11738548E-01 -0.35544408E-02 -0.29451114E-01  0.64551706E-01  0.34421712E-01
   12   11   -0.16502546E-01 -0.11070137E-01 -0.40894564E-02  0.45426603E-02  0.72098650E-03 -0.16803475E-01
    1   12   -0.79271421E-02  0.15915998E-01  0.28358685E-02  0.22894782E-02 -0.11634573E-02 -0.42839536E-03
    2   12    0.80008568E-02  0.27621473E-02  0.44623973E-02  0.88462978E-02  0.11881324E-02 -0.34389201E-02
    3   12    0.18932207E-01  0.20491163E-02  0.51974459E-02 -0.91272795E-02 -0.21625577E-02  0.70803999E-03
    4   12   -0.51930714E-03 -0.13439464E-02 -0.23444190E-02  0.11342379E-02  0.13356021E-03 -0.18028147E-02
    5   12    0.44981989E-04 -0.18311285E-01  0.11428280E-01  0.13189452E-01  0.56949243E-02  0.11350643E-02
    6   12   -0.11451901E-02 -0.30601975E-02  0.25883835E-02 -0.29089720E-02 -0.30682417E-02  0.11657385E-02
    7   12    0.38887721E-02  0.60515571E-02  0.10493589E-02 -0.35959392E-02 -0.68727835E-03 -0.15362402E-02
    8   12   -0.40547358E-02  0.11061359E-02  0.24639596E-02 -0.93967860E-03  0.55480882E-03 -0.27928058E-02
    9   12   -0.26022735E-01 -0.43520398E-01 -0.79631797E-02  0.38149223E-01  0.14033555E-01  0.89602843E-02
   10   12    0.76515403E-02  0.22850683E-01 -0.15469869E-01  0.85039577E-02  0.48109434E-02  0.85328271E-02
   11   12    0.14780301E-02 -0.23321684E-01  0.23037022E-01  0.45722771E-02  0.12690377E-03  0.34494011E-02
   12   12    0.16694951E-02 -0.39513563E-02 -0.25951840E-02  0.54067468E-02  0.24775391E-01 -0.20944687E-01
